<?xml version="1.0"?>
<VTKFile type="UnstructuredGrid"  version="0.1"  >
<UnstructuredGrid>
<Piece  NumberOfPoints="22947" NumberOfCells="45411">
<Points>
<DataArray  type="Float64"  NumberOfComponents="3"  format="ascii">0 0 0  5 0 0  5 1 0  0 1 0  1.5 0.2 0  1.3 0.6 0  1.7 0.6 0  0.09988181715350253 0 0  0.1997636343069831 0 0  0.2996454514604577 0 0  0.3995272686139624 0 0  0.4994090857674671 0 0  0.5992909029209642 0 0  0.6991727200743116 0 0  0.7977480796387948 0 0  0.8833077882008854 0 0  0.9552465290058831 0 0  1.015928428880551 0 0  1.06737033859586 0 0  1.111317272793253 0 0  1.14931422653285 0 0  1.182777857033489 0 0  1.213067364367625 0 0  1.241543873852857 0 0  1.269517245850398 0 0  1.297484154653317 0 0  1.325451063456236 0 0  1.353417972259155 0 0  1.381384881062075 0 0  1.409351789864994 0 0  1.437318698667913 0 0  1.465285607470832 0 0  1.493252516273751 0 0  1.521219425076671 0 0  1.54918633387959 0 0  1.577153242682509 0 0  1.605120151485428 0 0  1.633087060288348 0 0  1.661053969091267 0 0  1.689020877894186 0 0  1.716987786697105 0 0  1.744954695500025 0 0  1.772921604302944 0 0  1.800888513105863 0 0  1.828855421908782 0 0  1.856822330711702 0 0  1.884789239514621 0 0  1.91275614831754 0 0  1.940723057120459 0 0  1.968689965923379 0 0  1.996656874726308 0 0  2.02462378352929 0 0  2.052590692332318 0 0  2.080557601135361 0 0  2.108524509938404 0 0  2.136491418741448 0 0  2.164458327544491 0 0  2.192425236347535 0 0  2.220392145150578 0 0  2.248359053953621 0 0  2.276325962756665 0 0  2.304292871559708 0 0  2.332259780362751 0 0  2.360226689165795 0 0  2.388193597968838 0 0  2.416160506771881 0 0  2.444127415574925 0 0  2.472094324377968 0 0  2.500061233181011 0 0  2.528028141984055 0 0  2.555995050787098 0 0  2.583961959590142 0 0  2.611928868393185 0 0  2.639895777196228 0 0  2.667862685999272 0 0  2.695829594802315 0 0  2.723796503605358 0 0  2.751763412408402 0 0  2.779730321211445 0 0  2.807697230014488 0 0  2.835664138817531 0 0  2.863631047620574 0 0  2.891597956423618 0 0  2.919564865226662 0 0  2.947531774029705 0 0  2.975498682832749 0 0  3.003466037710658 0 0  3.031764566682743 0 0  3.061630572857904 0 0  3.094429607623581 0 0  3.13021238288224 0 0  3.166169837057582 0 0  3.202127291232924 0 0  3.238084745408265 0 0  3.274042199583607 0 0  3.309999653758949 0 0  3.34595710793429 0 0  3.381914562109632 0 0  3.417872016284973 0 0  3.453829470460315 0 0  3.489786924635657 0 0  3.525744378810998 0 0  3.56170183298634 0 0  3.597659287161681 0 0  3.633616741337023 0 0  3.669574195512365 0 0  3.705531649687707 0 0  3.741489103863048 0 0  3.77744655803839 0 0  3.813404012213732 0 0  3.849361466389073 0 0  3.885318920564415 0 0  3.921276374739756 0 0  3.957233828915097 0 0  3.993191283090439 0 0  4.02914873726578 0 0  4.065106191441122 0 0  4.101063645616464 0 0  4.137021099791806 0 0  4.172978553967147 0 0  4.208936008142489 0 0  4.24489346231783 0 0  4.280850916493172 0 0  4.316808370668514 0 0  4.352765824843855 0 0  4.388723279019197 0 0  4.424680733194538 0 0  4.46063818736988 0 0  4.496595641545222 0 0  4.532553095720563 0 0  4.568510549895905 0 0  4.604468004071246 0 0  4.640425458246588 0 0  4.676382912421929 0 0  4.712340366597271 0 0  4.748297820772613 0 0  4.784255274947953 0 0  4.820212729123295 0 0  4.856170183298635 0 0  4.892127637473977 0 0  4.928085091649318 0 0  4.964042545824659 0 0  5 0.0328500670419322 0  5 0.06090401573905966 0  5 0.08486207734983149 0  5 0.1054388876402908 0  5 0.1251669432582367 0  5 0.1448949988761606 0  5 0.1646230544940819 0  5 0.1843511101120033 0  5 0.2040791657299246 0  5 0.2238072213478459 0  5 0.2435352769657672 0  5 0.2632633325836884 0  5 0.2829913882016097 0  5 0.3027194438195311 0  5 0.3224474994374524 0  5 0.3421755550553737 0  5 0.3619036106732951 0  5 0.3816316662912164 0  5 0.4013597219091377 0  5 0.421087777527059 0  5 0.4408158331449803 0  5 0.4605438887629016 0  5 0.4802719443808229 0  5 0.4999999999987551 0  5 0.519728055616775 0  5 0.5394561112348057 0  5 0.5591841668528366 0  5 0.5789122224708674 0  5 0.5986402780888981 0  5 0.6183683337069288 0  5 0.6380963893249596 0  5 0.6578244449429903 0  5 0.6775525005610212 0  5 0.6972805561790519 0  5 0.7170086117970828 0  5 0.7367366674151135 0  5 0.7564647230331443 0  5 0.776192778651175 0  5 0.7959208342692058 0  5 0.8156488898872365 0  5 0.8353769455052672 0  5 0.855105001123298 0  5 0.8748330567413287 0  5 0.8945611123593595 0  5 0.9151379226498687 0  5 0.9390959842606995 0  5 0.9671499329579316 0  4.964042545824707 1 0  4.928085091649415 1 0  4.892127637474122 1 0  4.856170183298829 1 0  4.820212729123536 1 0  4.784255274948244 1 0  4.748297820772951 1 0  4.712340366597658 1 0  4.676382912422365 1 0  4.640425458247072 1 0  4.604468004071779 1 0  4.568510549896486 1 0  4.532553095721194 1 0  4.496595641545901 1 0  4.460638187370608 1 0  4.424680733195316 1 0  4.388723279020023 1 0  4.35276582484473 1 0  4.316808370669437 1 0  4.280850916494145 1 0  4.244893462318852 1 0  4.208936008143559 1 0  4.172978553968266 1 0  4.137021099792974 1 0  4.101063645617681 1 0  4.065106191442388 1 0  4.029148737267096 1 0  3.993191283091803 1 0  3.95723382891651 1 0  3.921276374741217 1 0  3.885318920565925 1 0  3.849361466390632 1 0  3.813404012215339 1 0  3.777446558040046 1 0  3.741489103864753 1 0  3.705531649689461 1 0  3.669574195514167 1 0  3.633616741338875 1 0  3.597659287163582 1 0  3.561701832988289 1 0  3.525744378812996 1 0  3.489786924637703 1 0  3.45382947046241 1 0  3.417872016287117 1 0  3.381914562111825 1 0  3.345957107936532 1 0  3.309999653761239 1 0  3.274042199585946 1 0  3.238084745410653 1 0  3.20212729123536 1 0  3.166169837060067 1 0  3.130212382884775 1 0  3.094429607626076 1 0  3.061630572860181 1 0  3.031764566684895 1 0  3.00346603771278 1 0  2.97549868283491 1 0  2.947531774031904 1 0  2.919564865228899 1 0  2.891597956425894 1 0  2.863631047622888 1 0  2.835664138819883 1 0  2.807697230016877 1 0  2.779730321213872 1 0  2.751763412410866 1 0  2.723796503607861 1 0  2.695829594804855 1 0  2.66786268600185 1 0  2.639895777198844 1 0  2.611928868395839 1 0  2.583961959592834 1 0  2.555995050789828 1 0  2.528028141986823 1 0  2.500061233183817 1 0  2.472094324380812 1 0  2.444127415577806 1 0  2.416160506774801 1 0  2.388193597971795 1 0  2.36022668916879 1 0  2.332259780365785 1 0  2.304292871562779 1 0  2.276325962759774 1 0  2.248359053956768 1 0  2.220392145153763 1 0  2.192425236350757 1 0  2.164458327547752 1 0  2.136491418744747 1 0  2.108524509941741 1 0  2.080557601138736 1 0  2.05259069233573 1 0  2.024623783532725 1 0  1.99665687472972 1 0  1.968689965926714 1 0  1.940723057123709 1 0  1.912756148320703 1 0  1.884789239517698 1 0  1.856822330714692 1 0  1.828855421911687 1 0  1.800888513108681 1 0  1.772921604305676 1 0  1.74495469550267 1 0  1.716987786699665 1 0  1.68902087789666 1 0  1.661053969093654 1 0  1.633087060290649 1 0  1.605120151487644 1 0  1.577153242684639 1 0  1.549186333881632 1 0  1.521219425078627 1 0  1.493252516275621 1 0  1.465285607472617 1 0  1.437318698669611 1 0  1.409351789866606 1 0  1.3813848810636 1 0  1.353417972260594 1 0  1.32545106345759 1 0  1.297484154654584 1 0  1.269517245851579 1 0  1.241543873853952 1 0  1.213067364368676 1 0  1.182777857034534 1 0  1.149314226533915 1 0  1.111317272794346 1 0  1.067370338596986 1 0  1.015928428881706 1 0  0.9552465290070451 1 0  0.8833077882020213 1 0  0.7977480796398604 1 0  0.6991727200751363 1 0  0.5992909029215436 1 0  0.4994090857679536 1 0  0.3995272686143618 1 0  0.2996454514607718 1 0  0.1997636343071827 1 0  0.09988181715359001 1 0  0 0.8999999999995836 0  0 0.7999999999999998 0  0 0.7000000000006934 0  0 0.6000000000013869 0  0 0.5000000000020587 0  0 0.4000000000016644 0  0 0.3000000000012483 0  0 0.2000000000008322 0  0 0.100000000000416 0  1.699751384242739 0.6099691771530924 0  1.699006155066563 0.6199135693842884 0  1.697766165232479 0.6298084533184788 0  1.696034497548046 0.6396292287470388 0  1.693815457209259 0.649351479681627 0  1.691114561101324 0.6589510350634165 0  1.687938524092297 0.6684040288434037 0  1.684295242284711 0.6776869594669508 0  1.680193773487681 0.6867767480162182 0  1.67564431456081 0.6956507959321996 0  1.670658176173392 0.7042870409263378 0  1.665247754668492 0.7126640118983073 0  1.659426501197733 0.720760882390984 0  1.653208888346202 0.7285575222681306 0  1.646610374031267 0.7360345479149025 0  1.639647363235856 0.7431733702239103 0  1.632337167092531 0.7499562409702357 0  1.62469795989353 0.756366296874971 0  1.616748733919558 0.7623876015223461 0  1.608509252208739 0.7680051849946904 0  1.599999999406289 0.7732050810996667 0  1.591242130860608 0.7779743620750351 0  1.582257419988525 0.7823011707500295 0  1.573068204170437 0.7861747500046861 0  1.563697329302744 0.7895854694846042 0  1.554168092871136 0.7925248496031199 0  1.544504185999879 0.7949855826169927 0  1.534729634727922 0.7969615507444667 0  1.524868740094186 0.7984478414247124 0  1.514946017836289 0.7994407595022575 0  1.504986137413824 0.7999378364234504 0  1.495013860716175 0.7999378363768156 0  1.485053980351481 0.7994407593664496 0  1.475131258156531 0.7984478412054987 0  1.465270363613604 0.7969615504520329 0  1.4554958123743 0.7949855822459098 0  1.445831905597438 0.7925248491722436 0  1.436302669250897 0.7895854689986533 0  1.426931794485273 0.786174749477091 0  1.417742578777908 0.7823011701934227 0  1.408757867959409 0.7779743614700931 0  1.399999999478033 0.7732050804555297 0  1.391490746737941 0.7680051843143844 0  1.383251265066765 0.7623876007935619 0  1.375302039213222 0.7563662961626294 0  1.367662832117841 0.7499562402733849 0  1.360352636037667 0.7431733695153243 0  1.353389625336735 0.736034547233771 0  1.346791111115898 0.7285575216270866 0  1.340573498342716 0.7207608817842938 0  1.33475224496031 0.7126640113538593 0  1.329341823531611 0.7042870404435957 0  1.324355685207748 0.6956507955072012 0  1.319806226317615 0.6867767476119111 0  1.315704757542792 0.6
[...]
<PointData  Scalars="Pressure"> 
<DataArray  type="Float64"  Name="Pressure"  format="ascii">4.6003268892731333e+00  0.0000000000000000e+00  0.0000000000000000e+00  4.5723529997630035e+00  -6.0545342229829213e-01  4.7485909133967743e+00  -5.0309509785415019e-01  4.4881467538156281e+00  4.4920270703414396e+00  4.4487833538519954e+00  4.4497567010540067e+00  4.4343658381074125e+00  4.4287712906065106e+00  4.4197785713261473e+00  4.4105268213309037e+00  4.3972576048887655e+00  4.3828541891688220e+00  4.3647112722431931e+00  4.3418848471803528e+00  4.3133283475976922e+00  4.2801033534367656e+00  4.2419793057077344e+00  4.1959446779501048e+00  4.1407017500361718e+00  4.0725999772267079e+00  3.9854007549004802e+00  3.8768469205166447e+00  3.7360648351402919e+00  3.5652348509880012e+00  3.3516995296701655e+00  3.0967978762969959e+00  2.7954679942192828e+00  2.4590419013828044e+00  2.1087989920513093e+00  1.7372098644708924e+00  1.3900235518461335e+00  1.0534444300375181e+00  7.5925723728491001e-01  4.9216939815797356e-01  2.6820813135103511e-01  7.0179332490770699e-02  -1.0470780300607463e-01  -2.4860222070453861e-01  -3.8331732804633817e-01  -4.9430438887010830e-01  -5.8815270244972651e-01  -6.6881259498378010e-01  -7.3941916756441228e-01  -7.9184075276840737e-01  -8.3260962236656011e-01  -8.5691263958007635e-01  -8.6908709121832017e-01  -8.6778810318992894e-01  -8.5606182569849343e-01  -8.2877497310504544e-01  -7.9775613612325358e-01  -7.5081842984910030e-01  -7.0125228135005280e-01  -6.4585257911340455e-01  -5.8405664432816007e-01  -5.1964814031319684e-01  -4.5698334893340464e-01  -3.9373156715198998e-01  -3.3346233991657209e-01  -2.7711429190232334e-01  -2.2507292121011210e-01  -1.7820875470301095e-01  -1.3648803712744728e-01  -1.0006409344517371e-01  -6.8392922862516345e-02  -4.1183433739497115e-02  -1.8061695050942028e-02  1.8884617073109439e-03  1.8680937752311038e-02  3.2996371576715679e-02  4.5196370693049596e-02  5.5731918937773225e-02  6.4897320423864813e-02  7.2786571936014718e-02  7.9838584623670383e-02  8.6048962290474290e-02  9.1686550031509731e-02  9.6855582544464344e-02  1.0163478879298997e-01  1.0618580406147497e-01  1.1059453509596311e-01  1.1493822375176123e-01  1.1936255891795787e-01  1.2416230907017672e-01  1.2965932142316894e-01  1.3612964121297991e-01  1.4319122766472953e-01  1.5103354944452752e-01  1.5972907236712600e-01  1.6953495647179942e-01  1.8037213920008954e-01  1.9246200004514721e-01  2.0607470821437246e-01  2.2084369292785944e-01  2.3693525413048505e-01  2.5439411989128563e-01  2.7277118842494297e-01  2.9211944859963873e-01  3.1202509981075305e-01  3.3208556867319072e-01  3.5190715029934633e-01  3.7111889533898745e-01  3.8919076363174937e-01  4.0568468221479487e-01  4.2043739730509183e-01  4.3276949684837085e-01  4.4275527348460431e-01  4.5019750002965392e-01  4.5513811477413202e-01  4.5742353522319679e-01  4.5747949823237644e-01  4.5525422536996846e-01  4.5132266171216190e-01  4.4557604115201577e-01  4.3869728042313400e-01  4.3059991418863319e-01  4.2144795544714336e-01  4.1188090155940110e-01  4.0151688977634009e-01  3.9088815062355342e-01  3.7944398709882771e-01  3.6735982433229453e-01  3.5497456081120893e-01  3.4129667223842197e-01  3.2705648647419483e-01  3.1143560497857631e-01  2.9458791598106943e-01  2.7642205488579796e-01  2.5676625297298478e-01  2.3529543078431586e-01  2.1235478394981283e-01  1.8757134805165129e-01  1.6090329354700600e-01  1.3284066164010730e-01  1.0250668082484807e-01  7.0995663099296363e-02  3.6889517558407081e-02  0.0000000000000000e+00  0.0000000000000000e+00  0.0000000000000000e+00  0.0000000000000000e+00  0.0000000000000000e+00  0.0000000000000000e+00  0.0000000000000000e+00  0.0000000000000000e+00  0.0000000000000000e+00  0.0000000000000000e+00  0.0000000000000000e+00  0.0000000000000000e+00  0.0000000000000000e+00  0.0000000000000000e+00  0.0000000000000000e+00  0.0000000000000000e+00  0.0000000000000000e+00  0.0000000000000000e+00  0.0000000000000000e+00  0.0000000000000000e+00  0.0000000000000000e+00  0.0000000000000000e+00  0.0000000000000000e+00  0.0000000000000000e+00  0.0000000000000000e+00  0.0000000000000000e+00  0.0000000000000000e+00  0.0000000000000000e+00  0.0000000000000000e+00  0.0000000000000000e+00  0.0000000000000000e+00  0.0000000000000000e+00  0.0000000000000000e+00  0.0000000000000000e+00  0.0000000000000000e+00  0.0000000000000000e+00  0.0000000000000000e+00  0.0000000000000000e+00  0.0000000000000000e+00  0.0000000000000000e+00  0.0000000000000000e+00  0.0000000000000000e+00  0.0000000000000000e+00  0.0000000000000000e+00  0.0000000000000000e+00  0.0000000000000000e+00  0.0000000000000000e+00  7.4391909162600828e-02  1.1128695265808186e-01  1.3690117441505367e-01  1.5494154870976007e-01  1.6909295515354966e-01  1.8027683397406746e-01  1.8982695869199318e-01  1.9737328350492583e-01  2.0322673467352723e-01  2.0703024863205333e-01  2.0888848069815358e-01  2.0854220605171087e-01  2.0654488688533593e-01  2.0298316177763057e-01  1.9871080745121417e-01  1.9408158751045829e-01  1.8990314566569577e-01  1.8655587747491909e-01  1.8448305308759927e-01  1.8405668517754598e-01  1.8535248296239340e-01  1.8833177774540250e-01  1.9265837295236127e-01  1.9752248925044691e-01  2.0236132272225624e-01  2.0640253726491611e-01  2.0941385529817214e-01  2.1134120902976875e-01  2.1239616659197366e-01  2.1286272708106627e-01  2.1296120532227525e-01  2.1296300032137047e-01  2.1301301265832534e-01  2.1327519322665239e-01  2.1389184285380267e-01  2.1483457088283459e-01  2.1616512543374017e-01  2.1771125218950485e-01  2.1935136351945161e-01  2.2089366338037839e-01  2.2218045759881927e-01  2.2315117277167193e-01  2.2376644622595560e-01  2.2405325637198684e-01  2.2406431209130917e-01  2.2388839342317687e-01  2.2355387358021026e-01  2.2313325793990701e-01  2.2264609440927796e-01  2.2211275616110107e-01  2.2153942545746480e-01  2.2091517865666624e-01  2.2021605336086161e-01  2.1948730258344284e-01  2.1870323561119437e-01  2.1783384321264865e-01  2.1683866650554071e-01  2.1567767058556708e-01  2.1432671744686368e-01  2.1277811600975113e-01  2.1097074515933864e-01  2.0889710705742051e-01  2.0648732369532319e-01  2.0368906098110143e-01  2.0042522483466030e-01  1.9659768241813846e-01  1.9210231509856041e-01  1.8677499929920893e-01  1.8051008306311592e-01  1.7298544915228767e-01  1.6403290701897794e-01  1.5335734736848369e-01  1.4055325605586527e-01  1.2508134189742645e-01  1.0680377544141442e-01  8.4722927343394996e-02  5.8960955922085549e-02  2.8653589763759871e-02  -6.3937045046107361e-03  -4.6473085073137681e-02  -9.1460403216764463e-02  -1.4085465883466258e-01  -1.9368341503535513e-01  -2.5006722393130959e-01  -3.0756934455645540e-01  -3.6466514645693926e-01  -4.2042585016971012e-01  -4.7323687351593702e-01  -5.1883961561030778e-01  -5.5863642162228000e-01  -5.9240728731356629e-01  -6.1508812764751597e-01  -6.2934760265015444e-01  -6.3788905800468254e-01  -6.3913690083965269e-01  -6.3049187167456000e-01  -6.2093715658804982e-01  -6.0468562311057705e-01  -5.7962872182071712e-01  -5.5612970851889298e-01  -5.2250310534960953e-01  -4.8316190982857521e-01  -4.3437522431002362e-01  -3.7279680049196351e-01  -2.9362615072110826e-01  -1.9198415414725459e-01  -4.3915678453781186e-02  9.7045758206544569e-02  3.3496381975166167e-01  5.8746616448173916e-01  8.8364806380182659e-01  1.1989428004359157e+00  1.5397246559301196e+00  1.8860283855219926e+00  2.2201592828891044e+00  2.5307956246447367e+00  2.8014419911800479e+00  3.0435701502433883e+00  3.2598913056797421e+00  3.4419008063122449e+00  3.5944279879271113e+00  3.7444080459531350e+00  3.8648724640395211e+00  3.9815205431323317e+00  4.0764538398683152e+00  4.1599451050552902e+00  4.2230153706293700e+00  4.2755292284716635e+00  4.3233297223224483e+00  4.3479448689312097e+00  4.3776598084783407e+00  4.4021715205295289e+00  4.4119564881441766e+00  4.4609216632111419e+00  4.4622524669111270e+00  4.5072129477792844e+00  4.4655292822732440e+00  4.4564217258168624e+00  4.4546097532366291e+00  4.4566144691203604e+00  4.4620781449705618e+00  4.4721363898329294e+00  4.4846158553460409e+00  4.5316330428920546e+00  -6.2119127276547270e-01  -6.0281266327060679e-01  -6.0972538978731061e-01  -6.0333812275282839e-01  -5.9288160037802262e-01  -5.8014326344635947e-01  -5.6685804642033433e-01  -5.5414337853442996e-01  -5.4253583931566451e-01  -5.3205934898634411e-01  -5.2307303289871143e-01  -5.1652452464767640e-01  -5.1409922856281565e-01  -5.1741739398004782e-01  -5.2670076867850935e-01  -5.4107322344257247e-01  -5.5899824699541700e-01  -5.7987327778638353e-01  -6.0595601489381246e-01  -6.3864298220862492e-01  -6.8019841314775864e-01  -7.3283194581774069e-01  -7.9721587164062235e-01  -8.7468578892736792e-01  -9.6450886323018825e-01  -1.0653376036759359e+00  -1.1722021092875030e+00  -1.2797708719249932e+00  -1.3810739986956737e+00  -1.4695349564744160e+00  -1.5341157959626774e+00  -1.5721464213895326e+00  -1.5740020360955935e+00  -1.5382281201367585e+00  -1.4643269279583060e+00  -1.3500355865926512e+00  -1.1991891670943833e+00  -1.0176541338315692e+00  -7.9916705875624661e-01  -5.5965493452184834e-01  -3.0225389341376890e-01  -2.3560651650980671e-02  2.6887319008679411e-01  5.5921325388503162e-01  8.6607279109441326e-01  1.1639357460339583e+00  1.4672970527157658e+00  1.7657895745356393e+00  2.0524205604227039e+00  2.3298419952897707e+00  2.6002823083014177e+00  2.8586665274354335e+00  3.0989169098778495e+00  3.3310586571655305e+00  3.5457455801242634e+00  3.7441348953753781e+00  3.9274556870339166e+00  4.0953903986824169e+00  4.2448559228962770e+00  4.3767827297270578e+00  4.4997526484899506e+00  4.5725642489698766e+00  4.8956531685966143e+00  4.9227819228505458e+00  4.9489685432210608e+00  4.9628889075162945e+00  4.9702365839843470e+00  4.9726569228051511e+00  4.9714655956233829e+00  4.9675518979720135e+00  4.9611715215733909e+00  4.9528032051845408e+00  4.9426551432913195e+00  4.9308810989593796e+00  4.9176189709712732e+00  4.9029194814179258e+00  4.8868360631340932e+00  4.8693569043416867e+00  4.8504676262234900e+00  4.8301208289002409e+00  4.8082601373256377e+00  4.7848837505877340e+00  4.7595660454749193e+00  4.7326484005329839e+00  4.7035698488560476e+00  4.6724521270424768e+00  4.6387567542030368e+00  4.6024885876085424e+00  4.5631620292103996e+00  4.5202861177276299e+00  4.4737381932697087e+00  4.4228095794874127e+00  4.3668318692206771e+00  4.3048968458570416e+00  4.2359483260857820e+00  4.1586457769789797e+00  4.0713357899264224e+00  3.9716375580982621e+00  3.8566136468395227e+00  3.7214664280212069e+00  3.5614615254598818e+00  3.3663226268355135e+00  3.1210730448654420e+00  2.7996047189505693e+00  2.3431493589909498e+00  1.5727992970761353e+00  -4.0220591078338752e-01  -2.5529655523275985e-01  -2.2455944189280785e-01  -2.0684142910680148e-01  -1.9868705165897294e-01  -1.9558351207488334e-01  -1.9509816973533298e-01  -1.9603300128879017e-01  -1.9767732655673445e-01  -1.9965271821293223e-01  -2.0177521943054347e-01  -2.0393101783751336e-01  -2.0603175054981107e-01  -2.0798749379261056e-01  -2.0967882843334987e-01  -2.1096947577000680e-01  -2.1168719125547364e-01  -2.1164554082027418e-01  -2.1064088711984805e-01  -2.0846283883317795e-01  -2.0491992171095116e-01  -1.9983614388591103e-01  -1.9308581530200447e-01  -1.8461246561227129e-01  -1.7441985341829508e-01  -1.6263046442508008e-01  -1.4947279405794595e-01  -1.3526349048416336e-01  -1.2048882915321057e-01  -1.0568276362110268e-01  -9.1563348625757532e-02  -7.8850915109229855e-02  -6.8397137034760080e-02  -6.1037527521386511e-02  -5.7621275997501081e-02  -5.9074229536733476e-02  -6.6062625528069407e-02  -7.9496223235212882e-02  -9.9879348075226942e-02  -1.2818183406393041e-01  -1.6491033997632340e-01  -2.1143380511096038e-01  -2.7096492588305188e-01  -3.3308341795283275e-01  -3.2222998748949450e-01  -6.9528600768899010e-02  -1.1562627375193769e-01  -5.5383670427072973e-01  -7.1775248792607682e-01  -3.2854109024637279e-01  -1.8774929169708798e-01  -2.0952473761919704e-01  7.3729792724853381e-03  -5.8642608745967373e-01  -5.4401402922369657e-01  2.1622113201744891e-01  8.3058662416396603e-02  1.8903520747612840e-01  -5.1681132597279474e-02  4.5392356435165301e-02  -3.5251598388424038e-01  1.1308313516183197e-01  -8.6491865539047252e-01  4.8581829646394930e+00  4.9525885598847914e+00  4.8861325066588455e+00  4.7114823269433606e+00  4.4921917123516026e+00  1.1466301233076761e-02  3.9924537060148195e-02  2.0750317216923284e-01  1.4804918612589185e-01  2.2068640487901980e-01  3.3378211567698263e-01  2.0481991787353590e-01  -1.8745351498899762e-03  -5.7410311365477229e-01  4.1898973344225796e+00  3.6251067092798785e+00  1.9184157215739346e+00  -2.0377652002089186e-01  -1.9692224311566220e-01  -2.5049048830245979e-01  1.2953828299329171e-02  1.6399558908478565e-01  2.2387642580236994e-01  2.8312951723353696e-01  2.1554611760713696e-01  4.2613157921271633e-01  2.1151575157325353e-01  4.4652038647503217e-01  1.8452830864393019e-01  3.9486690690418608e-01  -7.1199320777656971e-01  4.5443394490059381e+00  4.0062807108787197e+00  3.2392655084617288e+00  -5.1771612307021542e-01  -6.3630274466297065e-01  1.6326585942423462e-03  4.2577759663147301e+00  2.0638751359641258e-01  2.6161941491122509e-01  -3.1523779176673711e-01  2.2060245828069416e+00  1.3255677492126841e-01  -1.1029140877785833e-01  4.5472069265683956e-01  3.6140968814757773e-01  2.1521132742398288e-01  1.9879619834930054e-01  2.2133416603914377e-01  2.2291459858743606e-01  2.1314054437058910e-01  4.9655989495437138e+00  1.0232423630403607e-02  1.5094257405468339e-02  4.3754444321098553e+00  -5.5222157160338980e-01  1.0318914388377660e+00  4.0275855660818856e+00  4.2511719051180350e+00  -5.8764151960941391e-01  -6.1402357722531076e-01  1.5376596223079395e-01  -7.5548340918111723e-01  -9.9247956287586336e-01  -1.2989357945831699e+00  -1.5192734432859645e+00  -1.4626350929648486e+00  -1.0691857321431879e+00  3.9162936448087469e+00  3.9797297118030478e-01  3.5254317707863465e+00  -4.9942380878567577e-01  3.6471775207416122e+00  2.9086455668271132e+00  1.7182308702597662e-01  1.7271900769631549e-01  -1.5647351739615400e-01  -5.4457508812722799e-01  9.9368996171840029e-02  4.2494432908851165e-01  1.9264497463686547e-01  1.2538536808419374e+00  -1.5546186358848202e-01  -7.0020101852335773e-02  -1.5655053112480394e-01  4.6168712746473366e+00  -2.0469880440763868e-01  4.9071900302279348e+00  4.7949990971174783e+00  1.9141029542796836e-02  1.7985642292275934e-03  1.4336761955201440e-02  9.2145636518228616e-03  4.4163956639647646e+00  -3.3692346568837034e-01  2.0193319895159916e+00  4.3708240521155259e+00  2.9003938516276855e+00  2.3726611099873601e-02  4.4582879203890302e+00  1.0400691750495636e+00  1.6517146014260204e-02  4.4421569067719631e+00  4.1281494001675911e+00  -5.6627182766133155e-01  -5.2512526551869587e-01  -5.2717872127570498e-01  -5.9516286516795880e-01  3.6584411570403419e+00  -4.2180113335718139e-01  1.6483883279636513e+00  4.3069862458492478e+00  2.7514873061440044e+00  4.3287138304807113e+00  1.2134650838138202e-01  2.1903396841604181e-01  1.2232878330467455e-01  4.1663935727247798e+00  -8.3592320283356747e-01  -8.4479682057864725e-01  6.0398420976724647e-02  -2.3839268126939592e-01  -4.0221502554416561e-03  -4.9113493111800455e-01  2.1341608457337330e-01  -2.1258087368456668e-01  2.0188948321135347e-01  1.6888317934297103e-01  -6.2272918017472911e-01  4.5992492934355411e-01  9.9766123763312245e-02  -1.4023726232489691e-02  -6.1860937105810387e-01  -3.2586490102712265e-02  -5.4022416173375931e-01  1.8797919081233019e+00  4.5466571099470193e-01  1.8696358090846360e-01  3.5908206627432698e-01  3.2070687408207266e-01  4.4464430652261849e-01  3.0000691306325922e-01  3.9393564815235371e-01  1.4780604387806778e-01  2.4433216227186755e-01  1.1616196296389428e-01  2.2247805161486731e-01  2.2183808267800165e-01  2.2320544535697276e-01  2.0916781166549586e-01  1.8937823188166789e-01  2.1363802361902010e-01  2.1813839055610310e-01  2.2366491849004858e-01  1.9367543849231517e-01  1.8559272012969255e-01  2.0764109317190982e-01  2.1290949492086589e-01  4.4171227837025189e+00  4.4542729960462379e+00  -9.7603055239823586e-02  -8.9165934314797149e-02  4.3895481041950637e+00  4.0130619164727248e+00  3.2155181022090331e+00  4.9334093992286379e+00  -2.0773158549165985e-01  4.9649898083470907e+00  4.9460658346181061e+00  -4.1073514837163350e-01  -3.5388070591765824e-01  -2.4332381963858021e-01  9.7674452839423692e-03  -1.7591556203933606e-01  3.9402332523274564e-01  5.3953538543948587e-01  1.0226222399537046e+00  1.0457993813571147e+00  1.4579972640384364e+00  1.4271592272878928e+00  1.7693797639218614e+00  1.0889377549057924e+00  1.7172197516741843e+00  2.0060432583060033e+00  2.0911172482415967e+00  2.2730198422144037e+00  2.3783279235506058e+00  2.5166253016576099e+00  2.6279439253434060e+00  2.7311800201888206e+00  2.8417405449182587e+00  2.9185807886352531e+00  3.0246589309485312e+00  3.0818840219178529e+00  3.1816107076260622e+00  3.2242941867660111e+00  3.3169640794819850e+00  3.2854916843985569e+00  3.4118704104463906e+00  3.3913007500507537e+00  3.5073037468431503e+00  3.5209727667350510e+00  3.6072789845496271e+00  3.6016015809126096e+00  3.6920826743748383e+00  3.6933259141066039e+00  3.7743592817994940e+00  3.7708076833351551e+00  3.8450526215473775e+00  3.8533238939696850e+00  3.9163290694690800e+00  3.9284398845112172e+00  3.9842447179340224e+00  3.9993946172962072e+00  4.0485685610149709e+00  4.0335313439904024e+00  4.0921299813765604e+00  4.1092006390567475e+00  4.1475215159814551e+00  4.1661467088420450e+00  4.1996998366344860e+00  4.2194845276842941e+00  4.2487257245256798e+00  4.2295951372069851e+00  4.2747827724404859e+00  4.2946949676218118e+00  4.3172627476001066e+00  4.3377186147258699e+00  4.3571334160125339e+00  4.3779522064569765e+00  4.3944693545524505e+00  4.4155168183459770e+00  4.4294307457545550e+00  4.4505618695198512e+00  4.4620914819479518e+00  4.4832302572458245e+00  4.4925666875021362e+00  4.5136413063788625e+00  4.5206178645706707e+00  4.5005140611441261e+00  4.5418639791918123e+00  4.5468979801141618e+00  4.5680810034695858e+00  4.5718545839566724e+00  4.5925223310024146e+00  4.5946832288781243e+00  4.6150237400093124e+00  4.6160918177254988e+00  4.6358603853990887e+00  4.6347256411301103e+00  4.3743127864394289e+00  4.5959783670775582e+00  4.6355588128106637e+00  4.6560093040140860e+00  4.5351553417183244e+00  4.6561802731490856e+00  4.6762639132009038e+00  4.3996934256556859e+00  4.6768031866672004e+00  4.6965283605989621e+00  4.6973270675056682e+00  4.7166697658753716e+00  4.7145281872042437e+00  4.7342820317076280e+00  4.7308716832394522e+00  4.7502200290280632e+00  4.7455670701684367e+00  4.7645043750890101e+00  4.7590659998040747e+00  4.7772372371516694e+00  4.7704195080173788e+00  4.7832161551614227e+00  4.7954485013759314e+00  3.8397776758897897e+00  4.1866701052859367e+00  4.0772187688251202e+00  4.2562203658535109e+00  4.7365911833142409e+00  4.8015797134573797e+00  4.8133757980488472e+00  3.9436960635102927e+00  4.8195416560647111e+00  4.8308983058819699e+00  4.8234905529403038e+00  4.8405444831043720e+00  4.8318936985200507e+00  4.8484366058664987e+00  4.8385199110908497e+00  4.8544935284094386e+00  4.8433264114641750e+00  1.9462286920611387e+00  2.6339883413925107e+00  3.1354075745159924e+00  3.2654455037902261e+00  4.7418262917916758e+00  4.6761993563590378e+00  4.8644573946109162e+00  4.8699196325880862e+00  4.8369992098668035e+00  4.8243810582433593e+00  4.8798543178427343e+00  4.8846916575618762e+00  4.8416507649612610e+00  4.8277662740569669e+00  3.1853995258784331e+00  3.3049568757281422e+00  2.7566897804141544e+00  4.8945077365147416e+00  4.8986846960488739e+00  4.8874071847446645e+00  4.9005975116650440e+00  4.8878332892085172e+00  4.9000471472786256e+00  4.8857295606015994e+00  3.2324062756395615e+00  3.3428680833160205e+00  4.8447267515264620e+00  4.8295864822630357e+00  3.27657080368956