<?xml version="1.0"?>
<VTKFile type="UnstructuredGrid"  version="0.1"  >
<UnstructuredGrid>
<Piece  NumberOfPoints="22947" NumberOfCells="45411">
<Points>
<DataArray  type="Float64"  NumberOfComponents="3"  format="ascii">0 0 0  5 0 0  5 1 0  0 1 0  1.5 0.2 0  1.3 0.6 0  1.7 0.6 0  0.09988181715350253 0 0  0.1997636343069831 0 0  0.2996454514604577 0 0  0.3995272686139624 0 0  0.4994090857674671 0 0  0.5992909029209642 0 0  0.6991727200743116 0 0  0.7977480796387948 0 0  0.8833077882008854 0 0  0.9552465290058831 0 0  1.015928428880551 0 0  1.06737033859586 0 0  1.111317272793253 0 0  1.14931422653285 0 0  1.182777857033489 0 0  1.213067364367625 0 0  1.241543873852857 0 0  1.269517245850398 0 0  1.297484154653317 0 0  1.325451063456236 0 0  1.353417972259155 0 0  1.381384881062075 0 0  1.409351789864994 0 0  1.437318698667913 0 0  1.465285607470832 0 0  1.493252516273751 0 0  1.521219425076671 0 0  1.54918633387959 0 0  1.577153242682509 0 0  1.605120151485428 0 0  1.633087060288348 0 0  1.661053969091267 0 0  1.689020877894186 0 0  1.716987786697105 0 0  1.744954695500025 0 0  1.772921604302944 0 0  1.800888513105863 0 0  1.828855421908782 0 0  1.856822330711702 0 0  1.884789239514621 0 0  1.91275614831754 0 0  1.940723057120459 0 0  1.968689965923379 0 0  1.996656874726308 0 0  2.02462378352929 0 0  2.052590692332318 0 0  2.080557601135361 0 0  2.108524509938404 0 0  2.136491418741448 0 0  2.164458327544491 0 0  2.192425236347535 0 0  2.220392145150578 0 0  2.248359053953621 0 0  2.276325962756665 0 0  2.304292871559708 0 0  2.332259780362751 0 0  2.360226689165795 0 0  2.388193597968838 0 0  2.416160506771881 0 0  2.444127415574925 0 0  2.472094324377968 0 0  2.500061233181011 0 0  2.528028141984055 0 0  2.555995050787098 0 0  2.583961959590142 0 0  2.611928868393185 0 0  2.639895777196228 0 0  2.667862685999272 0 0  2.695829594802315 0 0  2.723796503605358 0 0  2.751763412408402 0 0  2.779730321211445 0 0  2.807697230014488 0 0  2.835664138817531 0 0  2.863631047620574 0 0  2.891597956423618 0 0  2.919564865226662 0 0  2.947531774029705 0 0  2.975498682832749 0 0  3.003466037710658 0 0  3.031764566682743 0 0  3.061630572857904 0 0  3.094429607623581 0 0  3.13021238288224 0 0  3.166169837057582 0 0  3.202127291232924 0 0  3.238084745408265 0 0  3.274042199583607 0 0  3.309999653758949 0 0  3.34595710793429 0 0  3.381914562109632 0 0  3.417872016284973 0 0  3.453829470460315 0 0  3.489786924635657 0 0  3.525744378810998 0 0  3.56170183298634 0 0  3.597659287161681 0 0  3.633616741337023 0 0  3.669574195512365 0 0  3.705531649687707 0 0  3.741489103863048 0 0  3.77744655803839 0 0  3.813404012213732 0 0  3.849361466389073 0 0  3.885318920564415 0 0  3.921276374739756 0 0  3.957233828915097 0 0  3.993191283090439 0 0  4.02914873726578 0 0  4.065106191441122 0 0  4.101063645616464 0 0  4.137021099791806 0 0  4.172978553967147 0 0  4.208936008142489 0 0  4.24489346231783 0 0  4.280850916493172 0 0  4.316808370668514 0 0  4.352765824843855 0 0  4.388723279019197 0 0  4.424680733194538 0 0  4.46063818736988 0 0  4.496595641545222 0 0  4.532553095720563 0 0  4.568510549895905 0 0  4.604468004071246 0 0  4.640425458246588 0 0  4.676382912421929 0 0  4.712340366597271 0 0  4.748297820772613 0 0  4.784255274947953 0 0  4.820212729123295 0 0  4.856170183298635 0 0  4.892127637473977 0 0  4.928085091649318 0 0  4.964042545824659 0 0  5 0.0328500670419322 0  5 0.06090401573905966 0  5 0.08486207734983149 0  5 0.1054388876402908 0  5 0.1251669432582367 0  5 0.1448949988761606 0  5 0.1646230544940819 0  5 0.1843511101120033 0  5 0.2040791657299246 0  5 0.2238072213478459 0  5 0.2435352769657672 0  5 0.2632633325836884 0  5 0.2829913882016097 0  5 0.3027194438195311 0  5 0.3224474994374524 0  5 0.3421755550553737 0  5 0.3619036106732951 0  5 0.3816316662912164 0  5 0.4013597219091377 0  5 0.421087777527059 0  5 0.4408158331449803 0  5 0.4605438887629016 0  5 0.4802719443808229 0  5 0.4999999999987551 0  5 0.519728055616775 0  5 0.5394561112348057 0  5 0.5591841668528366 0  5 0.5789122224708674 0  5 0.5986402780888981 0  5 0.6183683337069288 0  5 0.6380963893249596 0  5 0.6578244449429903 0  5 0.6775525005610212 0  5 0.6972805561790519 0  5 0.7170086117970828 0  5 0.7367366674151135 0  5 0.7564647230331443 0  5 0.776192778651175 0  5 0.7959208342692058 0  5 0.8156488898872365 0  5 0.8353769455052672 0  5 0.855105001123298 0  5 0.8748330567413287 0  5 0.8945611123593595 0  5 0.9151379226498687 0  5 0.9390959842606995 0  5 0.9671499329579316 0  4.964042545824707 1 0  4.928085091649415 1 0  4.892127637474122 1 0  4.856170183298829 1 0  4.820212729123536 1 0  4.784255274948244 1 0  4.748297820772951 1 0  4.712340366597658 1 0  4.676382912422365 1 0  4.640425458247072 1 0  4.604468004071779 1 0  4.568510549896486 1 0  4.532553095721194 1 0  4.496595641545901 1 0  4.460638187370608 1 0  4.424680733195316 1 0  4.388723279020023 1 0  4.35276582484473 1 0  4.316808370669437 1 0  4.280850916494145 1 0  4.244893462318852 1 0  4.208936008143559 1 0  4.172978553968266 1 0  4.137021099792974 1 0  4.101063645617681 1 0  4.065106191442388 1 0  4.029148737267096 1 0  3.993191283091803 1 0  3.95723382891651 1 0  3.921276374741217 1 0  3.885318920565925 1 0  3.849361466390632 1 0  3.813404012215339 1 0  3.777446558040046 1 0  3.741489103864753 1 0  3.705531649689461 1 0  3.669574195514167 1 0  3.633616741338875 1 0  3.597659287163582 1 0  3.561701832988289 1 0  3.525744378812996 1 0  3.489786924637703 1 0  3.45382947046241 1 0  3.417872016287117 1 0  3.381914562111825 1 0  3.345957107936532 1 0  3.309999653761239 1 0  3.274042199585946 1 0  3.238084745410653 1 0  3.20212729123536 1 0  3.166169837060067 1 0  3.130212382884775 1 0  3.094429607626076 1 0  3.061630572860181 1 0  3.031764566684895 1 0  3.00346603771278 1 0  2.97549868283491 1 0  2.947531774031904 1 0  2.919564865228899 1 0  2.891597956425894 1 0  2.863631047622888 1 0  2.835664138819883 1 0  2.807697230016877 1 0  2.779730321213872 1 0  2.751763412410866 1 0  2.723796503607861 1 0  2.695829594804855 1 0  2.66786268600185 1 0  2.639895777198844 1 0  2.611928868395839 1 0  2.583961959592834 1 0  2.555995050789828 1 0  2.528028141986823 1 0  2.500061233183817 1 0  2.472094324380812 1 0  2.444127415577806 1 0  2.416160506774801 1 0  2.388193597971795 1 0  2.36022668916879 1 0  2.332259780365785 1 0  2.304292871562779 1 0  2.276325962759774 1 0  2.248359053956768 1 0  2.220392145153763 1 0  2.192425236350757 1 0  2.164458327547752 1 0  2.136491418744747 1 0  2.108524509941741 1 0  2.080557601138736 1 0  2.05259069233573 1 0  2.024623783532725 1 0  1.99665687472972 1 0  1.968689965926714 1 0  1.940723057123709 1 0  1.912756148320703 1 0  1.884789239517698 1 0  1.856822330714692 1 0  1.828855421911687 1 0  1.800888513108681 1 0  1.772921604305676 1 0  1.74495469550267 1 0  1.716987786699665 1 0  1.68902087789666 1 0  1.661053969093654 1 0  1.633087060290649 1 0  1.605120151487644 1 0  1.577153242684639 1 0  1.549186333881632 1 0  1.521219425078627 1 0  1.493252516275621 1 0  1.465285607472617 1 0  1.437318698669611 1 0  1.409351789866606 1 0  1.3813848810636 1 0  1.353417972260594 1 0  1.32545106345759 1 0  1.297484154654584 1 0  1.269517245851579 1 0  1.241543873853952 1 0  1.213067364368676 1 0  1.182777857034534 1 0  1.149314226533915 1 0  1.111317272794346 1 0  1.067370338596986 1 0  1.015928428881706 1 0  0.9552465290070451 1 0  0.8833077882020213 1 0  0.7977480796398604 1 0  0.6991727200751363 1 0  0.5992909029215436 1 0  0.4994090857679536 1 0  0.3995272686143618 1 0  0.2996454514607718 1 0  0.1997636343071827 1 0  0.09988181715359001 1 0  0 0.8999999999995836 0  0 0.7999999999999998 0  0 0.7000000000006934 0  0 0.6000000000013869 0  0 0.5000000000020587 0  0 0.4000000000016644 0  0 0.3000000000012483 0  0 0.2000000000008322 0  0 0.100000000000416 0  1.699751384242739 0.6099691771530924 0  1.699006155066563 0.6199135693842884 0  1.697766165232479 0.6298084533184788 0  1.696034497548046 0.6396292287470388 0  1.693815457209259 0.649351479681627 0  1.691114561101324 0.6589510350634165 0  1.687938524092297 0.6684040288434037 0  1.684295242284711 0.6776869594669508 0  1.680193773487681 0.6867767480162182 0  1.67564431456081 0.6956507959321996 0  1.670658176173392 0.7042870409263378 0  1.665247754668492 0.7126640118983073 0  1.659426501197733 0.720760882390984 0  1.653208888346202 0.7285575222681306 0  1.646610374031267 0.7360345479149025 0  1.639647363235856 0.7431733702239103 0  1.632337167092531 0.7499562409702357 0  1.62469795989353 0.756366296874971 0  1.616748733919558 0.7623876015223461 0  1.608509252208739 0.7680051849946904 0  1.599999999406289 0.7732050810996667 0  1.591242130860608 0.7779743620750351 0  1.582257419988525 0.7823011707500295 0  1.573068204170437 0.7861747500046861 0  1.563697329302744 0.7895854694846042 0  1.554168092871136 0.7925248496031199 0  1.544504185999879 0.7949855826169927 0  1.534729634727922 0.7969615507444667 0  1.524868740094186 0.7984478414247124 0  1.514946017836289 0.7994407595022575 0  1.504986137413824 0.7999378364234504 0  1.495013860716175 0.7999378363768156 0  1.485053980351481 0.7994407593664496 0  1.475131258156531 0.7984478412054987 0  1.465270363613604 0.7969615504520329 0  1.4554958123743 0.7949855822459098 0  1.445831905597438 0.7925248491722436 0  1.436302669250897 0.7895854689986533 0  1.426931794485273 0.786174749477091 0  1.417742578777908 0.7823011701934227 0  1.408757867959409 0.7779743614700931 0  1.399999999478033 0.7732050804555297 0  1.391490746737941 0.7680051843143844 0  1.383251265066765 0.7623876007935619 0  1.375302039213222 0.7563662961626294 0  1.367662832117841 0.7499562402733849 0  1.360352636037667 0.7431733695153243 0  1.353389625336735 0.736034547233771 0  1.346791111115898 0.7285575216270866 0  1.340573498342716 0.7207608817842938 0  1.33475224496031 0.7126640113538593 0  1.329341823531611 0.7042870404435957 0  1.324355685207748 0.6956507955072012 0  1.319806226317615 0.6867767476119111 0  1.315704757542792 0.6
[...]
<PointData  Scalars="Pressure"> 
<DataArray  type="Float64"  Name="Pressure"  format="ascii">3.3794620926243133e+00  0.0000000000000000e+00  0.0000000000000000e+00  3.3480439293096902e+00  -1.4671068598284684e+00  3.4838279845665294e+00  -2.3057249760056062e+00  3.2672568381331777e+00  3.2714655636987220e+00  3.2285115944303087e+00  3.2300474332031865e+00  3.2153052065042562e+00  3.2105541207710697e+00  3.2027206120173850e+00  3.1944678904838177e+00  3.1828775937687612e+00  3.1701161610684374e+00  3.1539002331203156e+00  3.1333743694961265e+00  3.1075326613191323e+00  3.0773495961107105e+00  3.0425074781803869e+00  3.0003415648291392e+00  2.9495547474543633e+00  2.8867212964486826e+00  2.8060736567792546e+00  2.7052669921238195e+00  2.5743471822286499e+00  2.4147971734377416e+00  2.2150056288515558e+00  1.9754936216141730e+00  1.6920635950743956e+00  1.3736716806876867e+00  1.0404249344931060e+00  6.8518236174486435e-01  3.4912586862632716e-01  2.0830735810784411e-02  -2.7117268626312940e-01  -5.3982529647783217e-01  -7.7020089999932073e-01  -9.7692959719199035e-01  -1.1617042641397033e+00  -1.3154511612624495e+00  -1.4582453812045975e+00  -1.5750129549891971e+00  -1.6699390610875411e+00  -1.7459282939857033e+00  -1.8067484379162368e+00  -1.8396147435146959e+00  -1.8553150246319439e+00  -1.8448468714805057e+00  -1.8169084756121117e+00  -1.7698797687709154e+00  -1.7114410670544955e+00  -1.6385324547099855e+00  -1.5650444217881703e+00  -1.4875201529026967e+00  -1.4148225230785119e+00  -1.3475704306291210e+00  -1.2887680517959610e+00  -1.2392536475467357e+00  -1.1983025293669620e+00  -1.1659971763993378e+00  -1.1406591267928941e+00  -1.1214412061071819e+00  -1.1067779493579499e+00  -1.0960013843312211e+00  -1.0880059369336779e+00  -1.0817189534132219e+00  -1.0760335441779201e+00  -1.0703052530039512e+00  -1.0638339826739309e+00  -1.0565487457664353e+00  -1.0482906538024250e+00  -1.0390754296410845e+00  -1.0289145981853243e+00  -1.0177031574424249e+00  -1.0056050854534171e+00  -9.9175143953363598e-01  -9.7650745432227948e-01  -9.5893618470219666e-01  -9.3891547132850417e-01  -9.1664593264269589e-01  -8.9167918982759753e-01  -8.6432311973077447e-01  -8.3731015723079827e-01  -8.1077114681267148e-01  -7.8760534399607451e-01  -7.6861996609133776e-01  -7.5673626762798130e-01  -7.5754909057248065e-01  -7.7181187786817795e-01  -8.0243644798656610e-01  -8.4852917422046326e-01  -9.1580910823185291e-01  -1.0039983946735087e+00  -1.1251884266670091e+00  -1.2739725153073744e+00  -1.4510860897864712e+00  -1.6294621032099565e+00  -1.8009080435206686e+00  -1.9435284194071976e+00  -2.0310336363293837e+00  -2.0742131706081679e+00  -2.0777718309942297e+00  -2.0180095695754403e+00  -1.9184752701788088e+00  -1.8006296897950194e+00  -1.6185874171054764e+00  -1.4227191323310135e+00  -1.2091114104043361e+00  -9.8425129620576424e-01  -7.6631160867612380e-01  -5.6697920617578235e-01  -3.9186673910334147e-01  -2.4491576498044079e-01  -1.2250514519420506e-01  -2.3865272212032582e-02  5.7666020870420172e-02  1.2310077301556546e-01  1.7560423078204399e-01  2.1701315765059534e-01  2.4722119590659064e-01  2.6838726255575368e-01  2.8123190467489806e-01  2.8708346826854481e-01  2.8845833155508815e-01  2.8461516493881350e-01  2.7773134122833515e-01  2.6831247292019444e-01  2.5658999938088939e-01  2.4352865343330837e-01  2.2898226958147963e-01  2.1328641008263785e-01  1.9611687671411807e-01  1.7749257026756862e-01  1.5719872811723248e-01  1.3521004355717675e-01  1.1183178076045928e-01  8.6693846996201557e-02  6.0795150328607592e-02  3.2709743906524723e-02  0.0000000000000000e+00  0.0000000000000000e+00  0.0000000000000000e+00  0.0000000000000000e+00  0.0000000000000000e+00  0.0000000000000000e+00  0.0000000000000000e+00  0.0000000000000000e+00  0.0000000000000000e+00  0.0000000000000000e+00  0.0000000000000000e+00  0.0000000000000000e+00  0.0000000000000000e+00  0.0000000000000000e+00  0.0000000000000000e+00  0.0000000000000000e+00  0.0000000000000000e+00  0.0000000000000000e+00  0.0000000000000000e+00  0.0000000000000000e+00  0.0000000000000000e+00  0.0000000000000000e+00  0.0000000000000000e+00  0.0000000000000000e+00  0.0000000000000000e+00  0.0000000000000000e+00  0.0000000000000000e+00  0.0000000000000000e+00  0.0000000000000000e+00  0.0000000000000000e+00  0.0000000000000000e+00  0.0000000000000000e+00  0.0000000000000000e+00  0.0000000000000000e+00  0.0000000000000000e+00  0.0000000000000000e+00  0.0000000000000000e+00  0.0000000000000000e+00  0.0000000000000000e+00  0.0000000000000000e+00  0.0000000000000000e+00  0.0000000000000000e+00  0.0000000000000000e+00  0.0000000000000000e+00  0.0000000000000000e+00  0.0000000000000000e+00  0.0000000000000000e+00  8.3828154750023115e-02  1.5559672421149937e-01  2.1900628602422395e-01  2.6946855271281323e-01  3.1086664127043484e-01  3.3909704528025814e-01  3.5980921412536460e-01  3.6904044588513091e-01  3.7227727986618225e-01  3.6717790998691602e-01  3.5897925692792876e-01  3.4476872111268281e-01  3.2879701158839159e-01  3.0934099118852831e-01  2.9085941356446238e-01  2.7414089394243341e-01  2.6036367241552766e-01  2.4858949523471957e-01  2.3628846644073850e-01  2.1923441157505455e-01  1.9101637727231088e-01  1.4589894936621850e-01  7.2944677155115906e-02  -3.1688561961608123e-02  -1.8469482123485198e-01  -3.8069911377647553e-01  -6.2853321091830427e-01  -9.1462038335634810e-01  -1.2222846684503406e+00  -1.5326992795567564e+00  -1.8127010481218875e+00  -2.0991581575477367e+00  -2.2217808366645375e+00  -2.3397238514234138e+00  -2.3422805788056258e+00  -2.3066365563273923e+00  -2.1537743346862785e+00  -1.9905475617972415e+00  -1.7913553195074290e+00  -1.6245792705539641e+00  -1.4684783169101605e+00  -1.3453598510718572e+00  -1.2557481009178497e+00  -1.1936202223936581e+00  -1.1546001575542808e+00  -1.1379897755447443e+00  -1.1362250348644820e+00  -1.1337363431626788e+00  -1.1232646195458256e+00  -1.1005117892740162e+00  -1.0650595123438653e+00  -1.0215970484310593e+00  -9.8180361497707025e-01  -9.5724267576844846e-01  -9.4736263325381120e-01  -9.4734682114980140e-01  -9.5221206087690946e-01  -9.5888304781208644e-01  -9.6443228872036024e-01  -9.6774078160468768e-01  -9.6797485089093604e-01  -9.6575955475994546e-01  -9.6139874878378384e-01  -9.5591458433048959e-01  -9.4982336305807169e-01  -9.4400026148741234e-01  -9.3897423081803577e-01  -9.3520468055079431e-01  -9.3298493011091288e-01  -9.3258083576415107e-01  -9.3388649106096056e-01  -9.3686279822603236e-01  -9.4137389028718532e-01  -9.4725682986139470e-01  -9.5419960217267119e-01  -9.6222306418875292e-01  -9.7115383663880617e-01  -9.8115585840941666e-01  -9.9241404866853522e-01  -1.0053376434891539e+00  -1.0202628677754821e+00  -1.0375700844778404e+00  -1.0582716916907646e+00  -1.0831307385926052e+00  -1.1125104299749013e+00  -1.1475721058732298e+00  -1.1882884019644973e+00  -1.2347714760802118e+00  -1.2862566316789161e+00  -1.3417977472881446e+00  -1.3998123786588446e+00  -1.4575805087384568e+00  -1.5124747223600581e+00  -1.5660337803107298e+00  -1.6155357923703348e+00  -1.6559735039589834e+00  -1.6959465840610213e+00  -1.7284901705948768e+00  -1.7476727798074803e+00  -1.7684870426099586e+00  -1.7734126823171692e+00  -1.7696215246075224e+00  -1.7518278092216051e+00  -1.7179253091752327e+00  -1.6604799158270482e+00  -1.5773843246541208e+00  -1.4403945371970710e+00  -1.3089190317463852e+00  -1.0724113468375913e+00  -8.1802849170394898e-01  -5.1516490702686946e-01  -1.8992932538471979e-01  1.6402237263321370e-01  5.2534628789197702e-01  8.7497711923611399e-01  1.2011131002819515e+00  1.4853359030450384e+00  1.7402698771840865e+00  1.9686107897358192e+00  2.1611319515976590e+00  2.3220025884015767e+00  2.4811837761724891e+00  2.6086350275343615e+00  2.7323431770288251e+00  2.8332873001563064e+00  2.9220481554777362e+00  2.9886369379288515e+00  3.0444191317790410e+00  3.0947258350388536e+00  3.1205875045307718e+00  3.1515142682807253e+00  3.1767119221766329e+00  3.1870397268313124e+00  3.2363347383551315e+00  3.2379592120467016e+00  3.2830394297979324e+00  3.2416421760617182e+00  3.2328920315154379e+00  3.2315091775034124e+00  3.2339843590173230e+00  3.2399225268262279e+00  3.2504286203476371e+00  3.2632892629077790e+00  3.3106138887801517e+00  -2.3606558689971568e+00  -2.2466931147940934e+00  -2.1949542969811495e+00  -2.1470069867558017e+00  -2.1110165870612798e+00  -2.0842227474084436e+00  -2.0641884077453998e+00  -2.0477580045981392e+00  -2.0329056976608548e+00  -2.0195547529674842e+00  -2.0099549993432162e+00  -2.0069162008294872e+00  -2.0118211772636774e+00  -2.0235297845130495e+00  -2.0392094747387262e+00  -2.0566977238057857e+00  -2.0752819341060693e+00  -2.0963189662306978e+00  -2.1233787372670756e+00  -2.1582425214790462e+00  -2.2029022748397638e+00  -2.2594263033479072e+00  -2.3283975904840890e+00  -2.4112078047642487e+00  -2.5069574605813769e+00  -2.6141986303634042e+00  -2.7275507987228931e+00  -2.8412582575803014e+00  -2.9479496424322389e+00  -3.0407732376478158e+00  -3.1080337209628426e+00  -3.1471707854274111e+00  -3.1479339606697661e+00  -3.1091693015132069e+00  -3.0303719001365632e+00  -2.9092117564370277e+00  -2.7498076802049010e+00  -2.5587924070653454e+00  -2.3284368871557470e+00  -2.0769815418935713e+00  -1.8068792647879512e+00  -1.5146142528441477e+00  -1.2080089589740197e+00  -9.0434462784908587e-01  -5.8290498679773195e-01  -2.7172925295087319e-01  4.5574795627368256e-02  3.5748593804997947e-01  6.5686543976452971e-01  9.4647942805155572e-01  1.2289549319029285e+00  1.4988147680328829e+00  1.7496006345104165e+00  1.9922664482443129e+00  2.2166256982168702e+00  2.4241404468889329e+00  2.6160526618243507e+00  2.7921119438805908e+00  2.9489422073838858e+00  3.0874115476775708e+00  3.2175327690903175e+00  3.2918076758171630e+00  3.6504453361892431e+00  3.6842932432635749e+00  3.7157276290957073e+00  3.7335392875356255e+00  3.7439856142759766e+00  3.7489603340129900e+00  3.7499635896682899e+00  3.7479834761644830e+00  3.7433291107208904e+00  3.7365416558405844e+00  3.7278632882566871e+00  3.7174771932333335e+00  3.7055459186387827e+00  3.6921383976173145e+00  3.6773245732614841e+00  3.6611078605612879e+00  3.6434866612223979e+00  3.6244260334570013e+00  3.6038815269808970e+00  3.5818614548966385e+00  3.5579634927374792e+00  3.5325211591201504e+00  3.5050105234463897e+00  3.4755486237302708e+00  3.4436324729751155e+00  3.4092711544419880e+00  3.3720118872854865e+00  3.3313959212296278e+00  3.2873120406147205e+00  3.2390980151621447e+00  3.1861288871149602e+00  3.1275579634698665e+00  3.0623987626080766e+00  2.9894020557599763e+00  2.9070206201426410e+00  2.8130440001014532e+00  2.7047153838025872e+00  2.5775960066142853e+00  2.4272455612217598e+00  2.2440855620121196e+00  2.0143255832288638e+00  1.7132716211810108e+00  1.2877110413947306e+00  5.7375466896613980e-01  -1.2749685302945437e+00  -1.1317495086105378e+00  -1.1049369641625668e+00  -1.0904814521128563e+00  -1.0841580180597989e+00  -1.0813705363230077e+00  -1.0799655492832676e+00  -1.0790592569566198e+00  -1.0781349736977255e+00  -1.0768629306175230e+00  -1.0749910026791314e+00  -1.0722679819823246e+00  -1.0684554081188395e+00  -1.0633124668145126e+00  -1.0566402801981767e+00  -1.0482669284890671e+00  -1.0381213669881999e+00  -1.0262392932114324e+00  -1.0127749279180254e+00  -9.9807560656775085e-01  -9.8265954115526155e-01  -9.6720543131461478e-01  -9.5262803901099502e-01  -9.3994665509568931e-01  -9.3028825497415757e-01  -9.2491521818493327e-01  -9.2498355404183397e-01  -9.3161888452373598e-01  -9.4589152986200864e-01  -9.6846561591518798e-01  -1.0000204690604093e+00  -1.0406223273255426e+00  -1.0905252014973856e+00  -1.1491317640355323e+00  -1.2161591680731283e+00  -1.2907999221052548e+00  -1.3722409112095224e+00  -1.4596589906595336e+00  -1.5520607705186982e+00  -1.6490636192146126e+00  -1.7499647644103011e+00  -1.8553338268888684e+00  -1.9672741370000288e+00  -2.0783695851477075e+00  -2.0381373364294584e+00  -1.3400251347625924e+00  -9.6588417858158604e-01  -2.2846340209017106e+00  -1.4352391040537789e+00  -1.1245257261075745e+00  -9.5096261935361281e-01  -1.0320759145689911e+00  2.3051031879301676e-02  -2.1152889545058540e+00  -2.0402307923926721e+00  -9.5757272224206880e-01  -9.6934948637683083e-01  -9.3682582085316091e-01  -1.0732445734025273e+00  -9.7685777876368285e-01  -1.1485513182906899e+00  -8.2604430795775374e-01  -1.7907542573133015e+00  3.6504905795063101e+00  3.7355532498164594e+00  3.6431233397430098e+00  3.5123814094570225e+00  3.3046699917672382e+00  2.2822719353660689e-02  -1.0348956524651893e+00  -9.6364883193022988e-01  -9.3929229701066708e-01  -1.0146331646642179e+00  2.7480927486532680e-01  3.1568454593300843e-01  3.2913031625312388e-02  -1.3681278186184864e+00  3.0187679473472575e+00  2.4866362714119883e+00  8.8812928916032308e-01  -1.0688339174414341e+00  -1.0795085416401207e+00  -1.1281861113631197e+00  2.9746537012063253e-02  -8.7026668644476513e-01  -1.1719888400896770e+00  -1.9968111200015022e+00  -2.2163563499156260e+00  -1.3138780011738069e+00  -1.0811550294434600e+00  2.1517978125656902e-02  2.0529828720698767e-01  2.7562795688630509e-01  -1.7836788634077043e+00  3.2657423638465426e+00  2.6995508688442027e+00  1.8974570357455671e+00  -2.0142980011679850e+00  -1.5829268280324071e+00  3.4568756735551917e-02  3.0568579349305049e+00  3.6635362529142529e-01  2.1870461658357804e-01  -1.3872647544517813e+00  8.1847026704150116e-01  -7.5782364213961428e-01  -1.0277932398805787e+00  -4.9480549939568347e-01  -1.9809805624382912e+00  -1.3688683523138239e+00  -1.0834566988694252e-01  -1.5167235059884285e+00  -1.1279925558343766e+00  -2.1818715194325948e+00  3.7401958896170706e+00  3.7120992417868696e-02  3.0112793343087058e-02  3.1636109095423364e+00  -2.0671086542090231e+00  -4.0843187490637628e-01  2.8448927295759736e+00  3.0184605381642777e+00  -1.7345771830646690e+00  -2.1318531460375207e+00  -1.3275778734976500e+00  -2.2837643229198625e+00  -2.5371457551707000e+00  -2.8618441401350156e+00  -3.0921065191626376e+00  -3.0287570318208905e+00  -2.6120557716165340e+00  2.6633954890188369e+00  -6.3699399227392117e-01  2.2493476995778328e+00  -1.7667643991798905e+00  2.4910703532934417e+00  1.5983753399969021e+00  1.4555956423728503e-01  3.1950492840228167e-01  -1.0921230764469749e+00  -1.2559842992943717e+00  -9.0624772391194919e-01  1.9370445521175278e-01  2.6662117848647182e-01  2.1689773518772043e-01  -1.7064513339926126e+00  -1.1290800154951213e+00  -9.3204883675034012e-01  3.4227936197157467e+00  -9.9241660021989031e-01  3.6957235539816677e+00  3.5912604576559066e+00  3.9283119053165269e-02  2.7141482714115057e-02  2.0013637502599234e-02  1.7807213196571636e-02  3.1998609023837932e+00  -1.6908452517708588e+00  6.6483009200923093e-01  3.1443004660338363e+00  1.7905695516773141e+00  -1.3787057191348260e+00  3.2358992297745428e+00  -3.5415648372206449e-01  1.6225185022828222e-02  3.2226747183645754e+00  2.8882164266081793e+00  -2.0698700794785911e+00  -2.0343121515916054e+00  -2.0184991144005764e+00  -2.1971545992755703e+00  2.3354472455967059e+00  -1.9311283594223398e+00  2.3591530676052710e-01  3.0153503096998184e+00  1.3878365213971189e+00  3.1214501209950360e+00  1.8735445729031244e-01  -9.5637009290049368e-01  -7.7902674483382128e-01  2.9730223056727749e+00  -1.6603236268899797e+00  -1.8433415995322118e+00  -1.0129092308171941e+00  -1.1105711820234312e+00  -1.0601033216200479e+00  -1.2542033932651862e+00  -9.6707590084311157e-01  -1.0669685208747703e+00  -9.5272570328915207e-01  -9.3343705433213120e-01  -1.6696326277439326e+00  -9.4722054611872974e-01  -9.5775116576588715e-01  -9.9621073132002302e-01  -1.4723355210470235e+00  -1.0865133588841631e+00  -1.6234826998057561e+00  8.2171603993063069e-01  -1.7178486348685035e-01  -1.0562821056623877e+00  2.8747143696251143e-01  -2.0804267870640323e+00  -9.0120652661521017e-01  2.4969174534791649e-01  -1.7472535932199853e+00  -7.8746833960288720e-01  -1.7023597333600378e+00  9.8712673346449842e-02  1.8714433432327152e-01  -1.0868934142640183e+00  -1.2849864627196224e+00  3.5083504960695888e-01  1.1628616228905389e-01  -2.3614440021807148e+00  -1.8916834791490920e+00  -1.1364723144477673e+00  3.6079564543666359e-01  2.4120291904810867e-01  -5.5144194835589166e-01  -1.7079674832401466e+00  3.1920686881954023e+00  3.2309631145313946e+00  -1.5135624089652076e+00  -1.0295604253094399e+00  3.2075066928890879e+00  2.8518965007105193e+00  2.1021029692345765e+00  3.7192424642792212e+00  -1.0908816290248677e+00  3.7442925576880532e+00  3.7140568713496438e+00  -1.2818866140697665e+00  -1.2259933974760677e+00  -1.1190190074752189e+00  -8.8619941906345323e-01  -1.0520095886248408e+00  -5.3819549454962901e-01  -4.0142221505624437e-01  4.5568173048752256e-02  6.7228494837110561e-02  4.5053833525313874e-01  4.2099984936022289e-01  7.3986935905082829e-01  1.0681068165000759e-01  6.9030653559293342e-01  9.5979477851526518e-01  1.0401809991517545e+00  1.2092427410987068e+00  1.3085660484187149e+00  1.4370103112163690e+00  1.5419777632088003e+00  1.6376840813346913e+00  1.7419673924862460e+00  1.8130305452469599e+00  1.9131078536263073e+00  1.9658479190991951e+00  2.0599577910132862e+00  2.0991083847074110e+00  2.1865846586051410e+00  2.1580060181379186e+00  2.2762035061084802e+00  2.2579003860091365e+00  2.3663549958608616e+00  2.3782090623069201e+00  2.4597848180503248e+00  2.4554705149801790e+00  2.5399801309700680e+00  2.5421910067731459e+00  2.6178237164114675e+00  2.6134606112204395e+00  2.6837532184010788e+00  2.6925694506479778e+00  2.7512700325503818e+00  2.7637050477921550e+00  2.8156342435655946e+00  2.8309295573383051e+00  2.8766214509247505e+00  2.8614385730187424e+00  2.9170364672090221e+00  2.9341313890063492e+00  2.9696115013156401e+00  2.9881639574656536e+00  3.0191524490444310e+00  3.0387876067074591e+00  3.0657116131009317e+00  3.0466947508597113e+00  3.0896326436467061e+00  3.1093750814246848e+00  3.1300014754008321e+00  3.1502436718340654e+00  3.1678907646378507e+00  3.1884606838186120e+00  3.2033664675201137e+00  3.2241371349444625e+00  3.2365779866917874e+00  3.2574110420882163e+00  3.2675910460963129e+00  3.2884145076781883e+00  3.2965123068461106e+00  3.3172576637755382e+00  3.3230720220543435e+00  3.3032867090390630e+00  3.3439957945007879e+00  3.3479592984299473e+00  3.3688105403716753e+00  3.3716096276098373e+00  3.3919232236437082e+00  3.3931803083419756e+00  3.4131553831908672e+00  3.4133936356174903e+00  3.4327794776001426e+00  3.4309575849720999e+00  3.1834234763973459e+00  3.3936565857095773e+00  3.4332937202791429e+00  3.4525252919343146e+00  3.3383968965675144e+00  3.4534884135548976e+00  3.4723500300776471e+00  3.2098840407207545e+00  3.4736577818886172e+00  3.4921575899181638e+00  3.4937020524278264e+00  3.5118176126567775e+00  3.5089777964632645e+00  3.5282458384147284e+00  3.5241792758355617e+00  3.5430351448545410e+00  3.5377647178192069e+00  3.5562001262213352e+00  3.5501793828350179e+00  3.5678353544781753e+00  3.5604678237380130e+00  3.5743845971658570e+00  3.5855048317009977e+00  2.6777842486802288e+00  3.0084944994875138e+00  2.9019790225732884e+00  3.0711550348522758e+00  3.5312337653474200e+00  3.5921947652791362e+00  3.6028620782490783e+00  2.7791061851598369e+00  3.6095765554757131e+00  3.6197848208812484e+00  3.6118554119004842e+00  3.6282842909363842e+00  3.6191381356607670e+00  3.6350242631625909e+00  3.6246392028698367e+00  3.6399177456525686e+00  3.6283026307308432e+00  9.0288203358218933e-01  1.5459371391986167e+00  2.0152278993162760e+00  2.1369223149637580e+00  3.5333225606779712e+00  3.4738521540662259e+00  3.6503462724966242e+00  3.6545993136495629e+00  3.6264260659908980e+00  3.6149823424923806e+00  3.6649976035667668e+00  3.6685711415936693e+00  3.6316352902157867e+00  3.6189503297354908e+00  2.0614045541889117e+00  2.1732972264329229e+00  1.6633214545958968e+00  3.6788526439007683e+00  3.6817002204458884e+00  3.6699853219543455e+00  3.6822328484413362e+00  3.669065644964978