<?xml version="1.0"?>
<VTKFile type="UnstructuredGrid"  version="0.1"  >
<UnstructuredGrid>
<Piece  NumberOfPoints="22947" NumberOfCells="45411">
<Points>
<DataArray  type="Float64"  NumberOfComponents="3"  format="ascii">0 0 0  5 0 0  5 1 0  0 1 0  1.5 0.2 0  1.3 0.6 0  1.7 0.6 0  0.09988181715350253 0 0  0.1997636343069831 0 0  0.2996454514604577 0 0  0.3995272686139624 0 0  0.4994090857674671 0 0  0.5992909029209642 0 0  0.6991727200743116 0 0  0.7977480796387948 0 0  0.8833077882008854 0 0  0.9552465290058831 0 0  1.015928428880551 0 0  1.06737033859586 0 0  1.111317272793253 0 0  1.14931422653285 0 0  1.182777857033489 0 0  1.213067364367625 0 0  1.241543873852857 0 0  1.269517245850398 0 0  1.297484154653317 0 0  1.325451063456236 0 0  1.353417972259155 0 0  1.381384881062075 0 0  1.409351789864994 0 0  1.437318698667913 0 0  1.465285607470832 0 0  1.493252516273751 0 0  1.521219425076671 0 0  1.54918633387959 0 0  1.577153242682509 0 0  1.605120151485428 0 0  1.633087060288348 0 0  1.661053969091267 0 0  1.689020877894186 0 0  1.716987786697105 0 0  1.744954695500025 0 0  1.772921604302944 0 0  1.800888513105863 0 0  1.828855421908782 0 0  1.856822330711702 0 0  1.884789239514621 0 0  1.91275614831754 0 0  1.940723057120459 0 0  1.968689965923379 0 0  1.996656874726308 0 0  2.02462378352929 0 0  2.052590692332318 0 0  2.080557601135361 0 0  2.108524509938404 0 0  2.136491418741448 0 0  2.164458327544491 0 0  2.192425236347535 0 0  2.220392145150578 0 0  2.248359053953621 0 0  2.276325962756665 0 0  2.304292871559708 0 0  2.332259780362751 0 0  2.360226689165795 0 0  2.388193597968838 0 0  2.416160506771881 0 0  2.444127415574925 0 0  2.472094324377968 0 0  2.500061233181011 0 0  2.528028141984055 0 0  2.555995050787098 0 0  2.583961959590142 0 0  2.611928868393185 0 0  2.639895777196228 0 0  2.667862685999272 0 0  2.695829594802315 0 0  2.723796503605358 0 0  2.751763412408402 0 0  2.779730321211445 0 0  2.807697230014488 0 0  2.835664138817531 0 0  2.863631047620574 0 0  2.891597956423618 0 0  2.919564865226662 0 0  2.947531774029705 0 0  2.975498682832749 0 0  3.003466037710658 0 0  3.031764566682743 0 0  3.061630572857904 0 0  3.094429607623581 0 0  3.13021238288224 0 0  3.166169837057582 0 0  3.202127291232924 0 0  3.238084745408265 0 0  3.274042199583607 0 0  3.309999653758949 0 0  3.34595710793429 0 0  3.381914562109632 0 0  3.417872016284973 0 0  3.453829470460315 0 0  3.489786924635657 0 0  3.525744378810998 0 0  3.56170183298634 0 0  3.597659287161681 0 0  3.633616741337023 0 0  3.669574195512365 0 0  3.705531649687707 0 0  3.741489103863048 0 0  3.77744655803839 0 0  3.813404012213732 0 0  3.849361466389073 0 0  3.885318920564415 0 0  3.921276374739756 0 0  3.957233828915097 0 0  3.993191283090439 0 0  4.02914873726578 0 0  4.065106191441122 0 0  4.101063645616464 0 0  4.137021099791806 0 0  4.172978553967147 0 0  4.208936008142489 0 0  4.24489346231783 0 0  4.280850916493172 0 0  4.316808370668514 0 0  4.352765824843855 0 0  4.388723279019197 0 0  4.424680733194538 0 0  4.46063818736988 0 0  4.496595641545222 0 0  4.532553095720563 0 0  4.568510549895905 0 0  4.604468004071246 0 0  4.640425458246588 0 0  4.676382912421929 0 0  4.712340366597271 0 0  4.748297820772613 0 0  4.784255274947953 0 0  4.820212729123295 0 0  4.856170183298635 0 0  4.892127637473977 0 0  4.928085091649318 0 0  4.964042545824659 0 0  5 0.0328500670419322 0  5 0.06090401573905966 0  5 0.08486207734983149 0  5 0.1054388876402908 0  5 0.1251669432582367 0  5 0.1448949988761606 0  5 0.1646230544940819 0  5 0.1843511101120033 0  5 0.2040791657299246 0  5 0.2238072213478459 0  5 0.2435352769657672 0  5 0.2632633325836884 0  5 0.2829913882016097 0  5 0.3027194438195311 0  5 0.3224474994374524 0  5 0.3421755550553737 0  5 0.3619036106732951 0  5 0.3816316662912164 0  5 0.4013597219091377 0  5 0.421087777527059 0  5 0.4408158331449803 0  5 0.4605438887629016 0  5 0.4802719443808229 0  5 0.4999999999987551 0  5 0.519728055616775 0  5 0.5394561112348057 0  5 0.5591841668528366 0  5 0.5789122224708674 0  5 0.5986402780888981 0  5 0.6183683337069288 0  5 0.6380963893249596 0  5 0.6578244449429903 0  5 0.6775525005610212 0  5 0.6972805561790519 0  5 0.7170086117970828 0  5 0.7367366674151135 0  5 0.7564647230331443 0  5 0.776192778651175 0  5 0.7959208342692058 0  5 0.8156488898872365 0  5 0.8353769455052672 0  5 0.855105001123298 0  5 0.8748330567413287 0  5 0.8945611123593595 0  5 0.9151379226498687 0  5 0.9390959842606995 0  5 0.9671499329579316 0  4.964042545824707 1 0  4.928085091649415 1 0  4.892127637474122 1 0  4.856170183298829 1 0  4.820212729123536 1 0  4.784255274948244 1 0  4.748297820772951 1 0  4.712340366597658 1 0  4.676382912422365 1 0  4.640425458247072 1 0  4.604468004071779 1 0  4.568510549896486 1 0  4.532553095721194 1 0  4.496595641545901 1 0  4.460638187370608 1 0  4.424680733195316 1 0  4.388723279020023 1 0  4.35276582484473 1 0  4.316808370669437 1 0  4.280850916494145 1 0  4.244893462318852 1 0  4.208936008143559 1 0  4.172978553968266 1 0  4.137021099792974 1 0  4.101063645617681 1 0  4.065106191442388 1 0  4.029148737267096 1 0  3.993191283091803 1 0  3.95723382891651 1 0  3.921276374741217 1 0  3.885318920565925 1 0  3.849361466390632 1 0  3.813404012215339 1 0  3.777446558040046 1 0  3.741489103864753 1 0  3.705531649689461 1 0  3.669574195514167 1 0  3.633616741338875 1 0  3.597659287163582 1 0  3.561701832988289 1 0  3.525744378812996 1 0  3.489786924637703 1 0  3.45382947046241 1 0  3.417872016287117 1 0  3.381914562111825 1 0  3.345957107936532 1 0  3.309999653761239 1 0  3.274042199585946 1 0  3.238084745410653 1 0  3.20212729123536 1 0  3.166169837060067 1 0  3.130212382884775 1 0  3.094429607626076 1 0  3.061630572860181 1 0  3.031764566684895 1 0  3.00346603771278 1 0  2.97549868283491 1 0  2.947531774031904 1 0  2.919564865228899 1 0  2.891597956425894 1 0  2.863631047622888 1 0  2.835664138819883 1 0  2.807697230016877 1 0  2.779730321213872 1 0  2.751763412410866 1 0  2.723796503607861 1 0  2.695829594804855 1 0  2.66786268600185 1 0  2.639895777198844 1 0  2.611928868395839 1 0  2.583961959592834 1 0  2.555995050789828 1 0  2.528028141986823 1 0  2.500061233183817 1 0  2.472094324380812 1 0  2.444127415577806 1 0  2.416160506774801 1 0  2.388193597971795 1 0  2.36022668916879 1 0  2.332259780365785 1 0  2.304292871562779 1 0  2.276325962759774 1 0  2.248359053956768 1 0  2.220392145153763 1 0  2.192425236350757 1 0  2.164458327547752 1 0  2.136491418744747 1 0  2.108524509941741 1 0  2.080557601138736 1 0  2.05259069233573 1 0  2.024623783532725 1 0  1.99665687472972 1 0  1.968689965926714 1 0  1.940723057123709 1 0  1.912756148320703 1 0  1.884789239517698 1 0  1.856822330714692 1 0  1.828855421911687 1 0  1.800888513108681 1 0  1.772921604305676 1 0  1.74495469550267 1 0  1.716987786699665 1 0  1.68902087789666 1 0  1.661053969093654 1 0  1.633087060290649 1 0  1.605120151487644 1 0  1.577153242684639 1 0  1.549186333881632 1 0  1.521219425078627 1 0  1.493252516275621 1 0  1.465285607472617 1 0  1.437318698669611 1 0  1.409351789866606 1 0  1.3813848810636 1 0  1.353417972260594 1 0  1.32545106345759 1 0  1.297484154654584 1 0  1.269517245851579 1 0  1.241543873853952 1 0  1.213067364368676 1 0  1.182777857034534 1 0  1.149314226533915 1 0  1.111317272794346 1 0  1.067370338596986 1 0  1.015928428881706 1 0  0.9552465290070451 1 0  0.8833077882020213 1 0  0.7977480796398604 1 0  0.6991727200751363 1 0  0.5992909029215436 1 0  0.4994090857679536 1 0  0.3995272686143618 1 0  0.2996454514607718 1 0  0.1997636343071827 1 0  0.09988181715359001 1 0  0 0.8999999999995836 0  0 0.7999999999999998 0  0 0.7000000000006934 0  0 0.6000000000013869 0  0 0.5000000000020587 0  0 0.4000000000016644 0  0 0.3000000000012483 0  0 0.2000000000008322 0  0 0.100000000000416 0  1.699751384242739 0.6099691771530924 0  1.699006155066563 0.6199135693842884 0  1.697766165232479 0.6298084533184788 0  1.696034497548046 0.6396292287470388 0  1.693815457209259 0.649351479681627 0  1.691114561101324 0.6589510350634165 0  1.687938524092297 0.6684040288434037 0  1.684295242284711 0.6776869594669508 0  1.680193773487681 0.6867767480162182 0  1.67564431456081 0.6956507959321996 0  1.670658176173392 0.7042870409263378 0  1.665247754668492 0.7126640118983073 0  1.659426501197733 0.720760882390984 0  1.653208888346202 0.7285575222681306 0  1.646610374031267 0.7360345479149025 0  1.639647363235856 0.7431733702239103 0  1.632337167092531 0.7499562409702357 0  1.62469795989353 0.756366296874971 0  1.616748733919558 0.7623876015223461 0  1.608509252208739 0.7680051849946904 0  1.599999999406289 0.7732050810996667 0  1.591242130860608 0.7779743620750351 0  1.582257419988525 0.7823011707500295 0  1.573068204170437 0.7861747500046861 0  1.563697329302744 0.7895854694846042 0  1.554168092871136 0.7925248496031199 0  1.544504185999879 0.7949855826169927 0  1.534729634727922 0.7969615507444667 0  1.524868740094186 0.7984478414247124 0  1.514946017836289 0.7994407595022575 0  1.504986137413824 0.7999378364234504 0  1.495013860716175 0.7999378363768156 0  1.485053980351481 0.7994407593664496 0  1.475131258156531 0.7984478412054987 0  1.465270363613604 0.7969615504520329 0  1.4554958123743 0.7949855822459098 0  1.445831905597438 0.7925248491722436 0  1.436302669250897 0.7895854689986533 0  1.426931794485273 0.786174749477091 0  1.417742578777908 0.7823011701934227 0  1.408757867959409 0.7779743614700931 0  1.399999999478033 0.7732050804555297 0  1.391490746737941 0.7680051843143844 0  1.383251265066765 0.7623876007935619 0  1.375302039213222 0.7563662961626294 0  1.367662832117841 0.7499562402733849 0  1.360352636037667 0.7431733695153243 0  1.353389625336735 0.736034547233771 0  1.346791111115898 0.7285575216270866 0  1.340573498342716 0.7207608817842938 0  1.33475224496031 0.7126640113538593 0  1.329341823531611 0.7042870404435957 0  1.324355685207748 0.6956507955072012 0  1.319806226317615 0.6867767476119111 0  1.315704757542792 0.6
[...]
<PointData  Scalars="Pressure"> 
<DataArray  type="Float64"  Name="Pressure"  format="ascii">3.1455797942398571e+00  0.0000000000000000e+00  0.0000000000000000e+00  3.1141749340228926e+00  -1.5329475081979020e+00  3.2199581244917028e+00  -2.7152285212492573e+00  3.0333284321622251e+00  3.0375850362817207e+00  2.9944323535450241e+00  2.9958052212244808e+00  2.9806498158345347e+00  2.9753799499658946e+00  2.9667700368493359e+00  2.9572685258960121e+00  2.9445274591539810e+00  2.9303681396707044e+00  2.9130729841251704e+00  2.8916734553639931e+00  2.8652457891808125e+00  2.8347855942932503e+00  2.7999777719118364e+00  2.7582079962517736e+00  2.7081941987755931e+00  2.6466419189489532e+00  2.5680308466832114e+00  2.4701605663328716e+00  2.3436954436596027e+00  2.1900204132116445e+00  1.9985249044535038e+00  1.7696995882347593e+00  1.5005094143670425e+00  1.1994965472328438e+00  8.8581949378100733e-01  5.5433292572292248e-01  2.4267284302699818e-01  -5.8991157224847629e-02  -3.2617555557943378e-01  -5.7081826204977204e-01  -7.8227411317396622e-01  -9.7472173133876350e-01  -1.1494811408606618e+00  -1.3024366218751495e+00  -1.4467609829523709e+00  -1.5718163399474565e+00  -1.6752165448646965e+00  -1.7571450898551733e+00  -1.8204968376719282e+00  -1.8442754992131754e+00  -1.8471776327234086e+00  -1.8139825704760650e+00  -1.7642211313019771e+00  -1.6987172029103290e+00  -1.6307439331482048e+00  -1.5644832333975709e+00  -1.5066693519911185e+00  -1.4594026646364724e+00  -1.4227137067509446e+00  -1.3953422213476183e+00  -1.3769092738443685e+00  -1.3654937690110045e+00  -1.3592546874595173e+00  -1.3530765585460154e+00  -1.3409297425830953e+00  -1.3201180052498158e+00  -1.2946049919599258e+00  -1.2739503087263488e+00  -1.2619128490695761e+00  -1.2586843968271733e+00  -1.2625386476728875e+00  -1.2741735159777712e+00  -1.2970403858053576e+00  -1.3328848965745657e+00  -1.3849583186407817e+00  -1.4552843808134797e+00  -1.5435224131616525e+00  -1.6474173830550691e+00  -1.7616438248604500e+00  -1.8769197739590655e+00  -1.9817168792803757e+00  -2.0659698483399800e+00  -2.1138773220609424e+00  -2.1146944048513183e+00  -2.0683041790772640e+00  -1.9695217391298927e+00  -1.8233105235329505e+00  -1.6456918402227032e+00  -1.4320239175977050e+00  -1.2007051585093855e+00  -9.3692883750399114e-01  -6.7194625880265624e-01  -4.4482713855262612e-01  -2.6755646171835251e-01  -1.4253340515161636e-01  -6.6200612125604255e-02  -2.6271510104103710e-02  -2.0869347268760250e-02  -3.6794740161017303e-02  -6.6270766858329361e-02  -1.0542444797669345e-01  -1.5052159463923886e-01  -1.9634715426413030e-01  -2.4087385483574783e-01  -2.8229443553691252e-01  -3.1753068512640881e-01  -3.4529263245613268e-01  -3.6690117307167031e-01  -3.8056529998857097e-01  -3.8767144026002154e-01  -3.8989744338864424e-01  -3.8677101332975350e-01  -3.8044286390109039e-01  -3.7128163298666139e-01  -3.5986992220705233e-01  -3.4620424705009700e-01  -3.3060384692799588e-01  -3.1278539570042496e-01  -2.9303498558206875e-01  -2.7103076279630589e-01  -2.4755523298799387e-01  -2.2268790553230514e-01  -1.9685206960532339e-01  -1.7137509611225529e-01  -1.4626129585961728e-01  -1.2290400601696271e-01  -1.0107921876312970e-01  -8.1118933453268552e-02  -6.4266944957725475e-02  -4.9091931371221836e-02  -3.6602888231057271e-02  -2.6246090934167243e-02  -1.7706980492096961e-02  -1.1217012939127328e-02  -6.0632393194736105e-03  -2.3853546482844662e-03  2.5196800406916849e-04  1.9253707131452696e-03  2.8575797591913086e-03  3.0854799150997940e-03  2.8849642557573505e-03  2.2079685341996930e-03  1.2360048862804741e-03  0.0000000000000000e+00  0.0000000000000000e+00  0.0000000000000000e+00  0.0000000000000000e+00  0.0000000000000000e+00  0.0000000000000000e+00  0.0000000000000000e+00  0.0000000000000000e+00  0.0000000000000000e+00  0.0000000000000000e+00  0.0000000000000000e+00  0.0000000000000000e+00  0.0000000000000000e+00  0.0000000000000000e+00  0.0000000000000000e+00  0.0000000000000000e+00  0.0000000000000000e+00  0.0000000000000000e+00  0.0000000000000000e+00  0.0000000000000000e+00  0.0000000000000000e+00  0.0000000000000000e+00  0.0000000000000000e+00  0.0000000000000000e+00  0.0000000000000000e+00  0.0000000000000000e+00  0.0000000000000000e+00  0.0000000000000000e+00  0.0000000000000000e+00  0.0000000000000000e+00  0.0000000000000000e+00  0.0000000000000000e+00  0.0000000000000000e+00  0.0000000000000000e+00  0.0000000000000000e+00  0.0000000000000000e+00  0.0000000000000000e+00  0.0000000000000000e+00  0.0000000000000000e+00  0.0000000000000000e+00  0.0000000000000000e+00  0.0000000000000000e+00  0.0000000000000000e+00  0.0000000000000000e+00  0.0000000000000000e+00  0.0000000000000000e+00  0.0000000000000000e+00  -6.5340166822411619e-05  -1.5587824420817774e-04  -3.9030899013321301e-04  -7.6360162373093857e-04  -1.2571620139080017e-03  -2.0548815993218666e-03  -2.9435585243754608e-03  -3.9817030122222133e-03  -4.9138301578565604e-03  -5.6202187275300611e-03  -5.4929331915925424e-03  -3.8214227565199891e-03  2.6842645736605030e-04  8.1278900980054324e-03  2.1118306661661510e-02  4.0663745034048723e-02  6.8768511410832858e-02  1.0524526783438261e-01  1.5128686372017938e-01  2.0423519137558577e-01  2.6533445031764824e-01  3.2831189133796645e-01  4.0083150943238544e-01  4.7322332071000101e-01  5.5060517764215144e-01  6.3168151038117304e-01  7.1133676694562087e-01  7.8448013896383595e-01  8.3904682673625097e-01  8.6611318254225134e-01  8.3757302895115571e-01  7.4649755400914930e-01  5.8089964203743782e-01  3.4496796262675716e-01  5.1096996263038437e-02  -2.8254071144518217e-01  -6.3455378147670782e-01  -9.8021865392782837e-01  -1.3054189602541273e+00  -1.5890325193678287e+00  -1.7872227548789448e+00  -1.9486461445755094e+00  -2.0270382999174488e+00  -2.0427124375101249e+00  -2.0033589851966465e+00  -1.9391536217261489e+00  -1.8261001590929837e+00  -1.7208672031138943e+00  -1.6101848698642665e+00  -1.5128775192848698e+00  -1.4317243196501828e+00  -1.3694495141261644e+00  -1.3290532678370883e+00  -1.3082275454532182e+00  -1.3037505650611376e+00  -1.3108070524960427e+00  -1.3267493462586917e+00  -1.3509292548586187e+00  -1.3815469188589178e+00  -1.4165327630588747e+00  -1.4538928392966968e+00  -1.4906124506518061e+00  -1.5241708678810095e+00  -1.5511127184643647e+00  -1.5695493658791866e+00  -1.5775127677931908e+00  -1.5747937186628609e+00  -1.5609263405885849e+00  -1.5390485019572553e+00  -1.5097623194323382e+00  -1.4763046498680876e+00  -1.4409296637634070e+00  -1.4054416512822892e+00  -1.3716209566168600e+00  -1.3405207067139993e+00  -1.3135321836504517e+00  -1.2904755291669898e+00  -1.2724423944826335e+00  -1.2592210927122676e+00  -1.2504963495588672e+00  -1.2455086171475545e+00  -1.2434519037307366e+00  -1.2439996963038742e+00  -1.2468452667017509e+00  -1.2520312200778712e+00  -1.2600860583753797e+00  -1.2717495491911206e+00  -1.2878285695959275e+00  -1.3095333148663761e+00  -1.3378602518185785e+00  -1.3722406154305027e+00  -1.4142170357666328e+00  -1.4619542600323809e+00  -1.5148981595842816e+00  -1.5724634640030635e+00  -1.6299721896368298e+00  -1.6918360875274374e+00  -1.7518576475974363e+00  -1.8015523019217832e+00  -1.8553519661545663e+00  -1.8927213465117028e+00  -1.9210402665544704e+00  -1.9336189147863583e+00  -1.9288466093004573e+00  -1.8960659955066554e+00  -1.8359752094955877e+00  -1.7155256524660858e+00  -1.5985423793786333e+00  -1.3712625811817132e+00  -1.1222344682823233e+00  -8.2029515050207324e-01  -4.9242976411498451e-01  -1.3308448952482260e-01  2.3543430850466518e-01  5.9320503162799487e-01  9.2768125187783179e-01  1.2192729603882613e+00  1.4810506071730172e+00  1.7157771062229419e+00  1.9137640692310947e+00  2.0784580739673437e+00  2.2419886122847559e+00  2.3720689655802034e+00  2.4982793248530237e+00  2.6009048737515950e+00  2.6907188354563516e+00  2.7572634790232904e+00  2.8128200723048953e+00  2.8627735020294929e+00  2.8878982710300050e+00  2.9184698883669604e+00  2.9432640189645709e+00  2.9533664721130850e+00  3.0024818828723081e+00  3.0041237744898557e+00  3.0492039059939056e+00  3.0078436201169247e+00  2.9990839656639854e+00  2.9976522245776152e+00  3.0000718007744833e+00  3.0059500147754652e+00  3.0164276893712869e+00  3.0292940553398022e+00  3.0766818609798987e+00  -2.7958059229818542e+00  -2.6678882336376928e+00  -2.6106876029223156e+00  -2.5542062016590545e+00  -2.5108221483019939e+00  -2.4783604820672398e+00  -2.4545808753512053e+00  -2.4356365959168764e+00  -2.4185253350039400e+00  -2.4025960213846544e+00  -2.3905591883114785e+00  -2.3861767607206308e+00  -2.3912863191555740e+00  -2.4042354735047389e+00  -2.4212691142983878e+00  -2.4397373881305264e+00  -2.4590441324742871e+00  -2.4810894988807095e+00  -2.5099261566131359e+00  -2.5473991601518673e+00  -2.5954611657340880e+00  -2.6562379995593894e+00  -2.7303109788497486e+00  -2.8191293187708344e+00  -2.9216246809181197e+00  -3.0362746686321032e+00  -3.1572873578618172e+00  -3.2785107053111080e+00  -3.3921890913215904e+00  -3.4912459008050378e+00  -3.5633024101046100e+00  -3.6059226559785671e+00  -3.6083140580884354e+00  -3.5695178134614522e+00  -3.4890561675906420e+00  -3.3645242718731696e+00  -3.2002586308309029e+00  -3.0035562508647229e+00  -2.7655118589099197e+00  -2.5061424648625636e+00  -2.2275050362009021e+00  -1.9259305095154751e+00  -1.6094517816662690e+00  -1.2965694709259385e+00  -9.6487193125346227e-01  -6.4443003418088429e-01  -3.1736405011221863e-01  3.8973208075820920e-03  3.1208793208729846e-01  6.1002794990177056e-01  9.0067835391468631e-01  1.1782399886903887e+00  1.4359360125104454e+00  1.6854497790114993e+00  1.9159453925618040e+00  2.1291104310650608e+00  2.3261920687097688e+00  2.5069995952087569e+00  2.6679556410846730e+00  2.8098217502749785e+00  2.9438263381367245e+00  3.0174969366861859e+00  3.3999513364513549e+00  3.4376541903156634e+00  3.4717574018726842e+00  3.4912319288815912e+00  3.5027610418620694e+00  3.5084289999995510e+00  3.5098523352596045e+00  3.5081229083880854e+00  3.5035715736000279e+00  3.4967859894611033e+00  3.4880375445007199e+00  3.4775230663361687e+00  3.4654276347181741e+00  3.4518291109048200e+00  3.4368113233555277e+00  3.4203854894657897e+00  3.4025597141772361e+00  3.3833060003771411e+00  3.3625882584081888e+00  3.3404236749051281e+00  3.3164186107485283e+00  3.2909075241176198e+00  3.2633870132911849e+00  3.2339736154643202e+00  3.2021940297393443e+00  3.1680368988656396e+00  3.1311107643936702e+00  3.0909296755795985e+00  3.0474266606227229e+00  2.9999602440292299e+00  2.9479365834868627e+00  2.8905459789975851e+00  2.8268504565998755e+00  2.7556594001818686e+00  2.6755002971179027e+00  2.5842693314091667e+00  2.4793323871898920e+00  2.3564713831151303e+00  2.2114316338839970e+00  2.0350984650775472e+00  1.8143423586702088e+00  1.5253559396872416e+00  1.1180742851241903e+00  4.3695002205864930e-01  -1.3528070788401920e+00  -1.2051630715935078e+00  -1.1720249371123193e+00  -1.1528524668156093e+00  -1.1444796291934645e+00  -1.1417852367580656e+00  -1.1417029357554094e+00  -1.1427927569033405e+00  -1.1443947835110835e+00  -1.1463179794883189e+00  -1.1485604898297292e+00  -1.1511557931328178e+00  -1.1541245528955895e+00  -1.1574974906751865e+00  -1.1613099203296646e+00  -1.1656314422242111e+00  -1.1705822465288249e+00  -1.1763096957647881e+00  -1.1829966027914880e+00  -1.1908796974942859e+00  -1.2001882092525982e+00  -1.2111735414722551e+00  -1.2241248001026204e+00  -1.2392938441552783e+00  -1.2569515151236825e+00  -1.2773966063908122e+00  -1.3008725715080238e+00  -1.3276429844512911e+00  -1.3580092004778588e+00  -1.3921737966293171e+00  -1.4304455630131356e+00  -1.4729727704041207e+00  -1.5201377701172418e+00  -1.5720317061073623e+00  -1.6290144164849403e+00  -1.6913393136852519e+00  -1.7592650616630257e+00  -1.8332030005469528e+00  -1.9134351996046024e+00  -2.0008109647233026e+00  -2.0959184695001065e+00  -2.2006582509222512e+00  -2.3187519028667825e+00  -2.4440726510149302e+00  -2.4014617626523993e+00  -1.7327814954732204e+00  -1.3807998635368532e+00  -2.7069594597028614e+00  -1.4297419630961361e+00  -1.2546542371803691e+00  -1.2356091810590528e+00  -1.1747684380775292e+00  9.6099135137886016e-04  -2.5152708938224544e+00  -2.4265791202337517e+00  -1.3378673915357175e+00  -2.0250368953521045e+00  -1.5675562559620060e+00  -1.2680848039461055e+00  -1.2798956294550177e+00  -1.3471301996777501e+00  -1.7392638538347278e+00  -1.7233080300110142e+00  3.4096825116628984e+00  3.4957049923100043e+00  3.3936210848644648e+00  3.2708264806560128e+00  3.0646341746787202e+00  8.3335477395250215e-04  -1.4874272434124074e+00  -1.5118949479150754e+00  -1.4223204487343346e+00  -1.3509139140237121e+00  -4.4122979589022331e-02  3.8363226117895358e-03  8.8302284912795091e-04  -1.3521207760632581e+00  2.7843509018824992e+00  2.2686192385211039e+00  7.3332402984424649e-01  -1.1522379585530054e+00  -1.1434756441597191e+00  -1.1994468110270284e+00  7.1142427874736330e-04  -1.0553433484372222e-01  -2.0331628789614635e+00  -2.2058209044253199e-01  -5.1343201816951201e-01  -3.8872375621461791e-01  8.1437601199496745e-01  -2.8129513746178769e-01  2.3916262222248846e-01  -1.3580704033745866e-01  -1.7985160400864444e+00  2.9939833874475705e+00  2.4125255545560487e+00  1.5888715984667190e+00  -2.3942961924553723e+00  -1.5311084065009557e+00  5.3686485844149255e-04  2.8144329516405540e+00  -5.3718291640564167e-03  -7.7917248216502156e-03  -1.3761432965014768e+00  4.7941013524468762e-01  -8.3995529894139398e-01  -1.2446338795969050e+00  -3.5422690023378489e-01  -3.5852455952324619e-01  -5.1624740323507050e-02  5.1352580352456823e-01  -1.7145174302479238e+00  -1.6519040892934826e+00  6.4569112602719347e-01  3.4990479572960291e+00  2.3503992348935124e-04  7.5396102313258573e-04  2.9235387384852043e+00  -2.4502288911333743e+00  -7.8404406584505071e-01  2.6059158445065402e+00  2.7868941709344885e+00  -1.7720529263064146e+00  -2.5190169456548053e+00  -1.7317270645573213e+00  -2.6825737735760233e+00  -2.9547127626509746e+00  -3.3014494006895037e+00  -3.5477244687717713e+00  -3.4862637574683393e+00  -3.0570668187641035e+00  2.4280014309570088e+00  -6.5985373743042652e-01  2.0039639913465952e+00  -1.9001209507541295e+00  2.2634457425546088e+00  1.3352242648943509e+00  2.4603303822499072e-03  -1.5185388033818535e-03  -1.2730382426864222e+00  -1.3677283213025746e+00  -2.1028992558979782e+00  -2.1288302383954283e-01  5.1965362385410281e-02  1.2120748057624914e-01  -2.0570582788829443e+00  -1.5528367255266942e+00  -1.2940144239553626e+00  3.1815526131846950e+00  -1.1982377427684621e+00  3.4554808503060892e+00  3.3499329455006039e+00  8.7562444804890836e-05  9.2214914733023269e-04  6.9058621855411608e-04  8.0872089303440193e-04  2.9634342864958909e+00  -1.9114988405614641e+00  3.7788482954090769e-01  2.9114342701997193e+00  1.5939301717222163e+00  -1.6624409747483646e+00  3.0019469967951564e+00  -6.5853236511628710e-01  7.0546081513571228e-04  2.9882588270777486e+00  2.6563122588541637e+00  -2.4607962680772073e+00  -2.4157299741140372e+00  -2.4008037251321728e+00  -2.6125053643887632e+00  2.0386782341274503e+00  -2.3543723270478818e+00  -1.2033614288413957e-01  2.7368347757048781e+00  1.0648576236352769e+00  2.8796148027789892e+00  -2.3212810953015771e-04  -1.3042740291248245e+00  -1.3114153272627076e+00  2.7313880575746978e+00  -1.5754897266706407e+00  -1.8160454798202539e+00  -1.6893402303247738e+00  -1.3112067567252867e+00  -1.3138829231121394e+00  -1.2955918423362094e+00  -1.4012377772675304e+00  -1.2453210582918186e+00  -1.5640017984108734e+00  -1.4917450280885627e+00  -1.6498781272622467e+00  -1.2495409706738916e+00  -1.3281422649520533e+00  -1.2563927390009924e+00  -1.4236193175113336e+00  -1.0787526824437268e+00  -1.6277332769311927e+00  6.8168940643388276e-01  -3.2040354563264073e-01  -2.1135570919899968e-02  -7.2409660090832370e-02  -2.9863892516475454e-01  -3.7705473862680217e-01  -2.1381460698833461e-02  -3.8456168230800580e-01  -3.4540649561658260e-01  -1.2322725245793509e-01  3.0014181749898720e-03  -1.0359881142927197e-03  -1.4569855826612808e+00  -2.0039159900125800e+00  -5.0920834496645936e-03  3.6191360861916949e-01  2.0657953159684533e-01  -1.1646715067413325e+00  -1.8741306497004222e+00  -3.3706316609734546e-03  1.3231709143897560e-01  6.8595756688065357e-01  8.4967451565675767e-01  2.9585046855867789e+00  2.9971478928016566e+00  -1.8813243855600266e+00  -1.4579493871479914e+00  2.9690065692120449e+00  2.6220089965161670e+00  1.8983720102682742e+00  3.4792937975728950e+00  -1.1542888942030622e+00  3.5041666428113589e+00  3.4704272877028393e+00  -1.3573041857620556e+00  -1.3008724655354686e+00  -1.1990871255940359e+00  -9.7281139694888230e-01  -1.1361616486950781e+00  -6.3901537927382657e-01  -5.0614044685539339e-01  -7.7512765957449825e-02  -5.5613314661341152e-02  3.1150958369710158e-01  2.8420905505918076e-01  5.8903817706333539e-01  -1.5948573986785518e-02  5.4257932374036011e-01  7.9981722913054876e-01  8.7619860880932621e-01  1.0380487327153634e+00  1.1328758586132390e+00  1.2557103173293878e+00  1.3561648062109251e+00  1.4475607012611094e+00  1.5475445689468648e+00  1.6152939904990233e+00  1.7113959921625221e+00  1.7615699375008371e+00  1.8520753362384543e+00  1.8892196926771530e+00  1.9734676185005529e+00  1.9465086205626887e+00  2.0599047196611462e+00  2.0428513191499964e+00  2.1469755509941137e+00  2.1578478838598993e+00  2.2367521661851959e+00  2.2331621953136120e+00  2.3144294258617313e+00  2.3171467770971454e+00  2.3899351506681916e+00  2.3851607801759815e+00  2.4534505109726585e+00  2.4625408288376054e+00  2.5191408387247849e+00  2.5317427937233790e+00  2.5818592260942155e+00  2.5972410189416735e+00  2.6413800508686922e+00  2.6261164242627673e+00  2.6804684399274663e+00  2.6975977560116506e+00  2.7319485611181968e+00  2.7505037083110566e+00  2.7805382922379236e+00  2.8001560702066692e+00  2.8262806455020320e+00  2.8072683001457781e+00  2.8495232008264972e+00  2.8692520477170689e+00  2.8893176147275259e+00  2.9095437023372925e+00  2.9267324871276403e+00  2.9472882259480606e+00  2.9618257714960601e+00  2.9825874114145172e+00  2.9947382079678664e+00  3.0155699525927973e+00  3.0255272796990478e+00  3.0463589131148940e+00  3.0542930382480207e+00  3.0750567972167522e+00  3.0807536934586643e+00  3.0609443524897579e+00  3.1017100893934830e+00  3.1056005533154254e+00  3.1264954086230241e+00  3.1292603137842607e+00  3.1496265543146822e+00  3.1508805648054246e+00  3.1709189168199994e+00  3.1711813826707065e+00  3.1906390948367482e+00  3.1888551740831463e+00  2.9418864313744479e+00  3.1513759863509732e+00  3.1911271967642656e+00  3.2104659836432923e+00  3.0962165570472213e+00  3.2113991931438579e+00  3.2303793998728869e+00  2.9686881930175146e+00  3.2316542838465034e+00  3.2502830712849953e+00  3.2517924491765666e+00  3.2700476001976257e+00  3.2672598328933051e+00  3.2866409484224999e+00  3.2826394821749774e+00  3.3016152813649189e+00  3.2964207389162765e+00  3.3149805798090886e+00  3.3090441611874728e+00  3.3268263179862432e+00  3.3195494603067992e+00  3.3332941447881295e+00  3.3446253413403757e+00  2.4471444279269052e+00  2.7707995430842889e+00  2.6653365025060056e+00  2.8310413190740351e+00  3.2895761222123392e+00  3.3512367945156325e+00  3.3621135606762427e+00  2.5472349658882929e+00  3.3687531493715119e+00  3.3791668854092425e+00  3.3713161414236241e+00  3.3878678769894637e+00  3.3788031728585546e+00  3.3948001832952355e+00  3.3844993609943077e+00  3.3998723510348547e+00  3.3883450792397483e+00  7.4618929240964138e-01  1.3597936877466898e+00  1.8085632123220181e+00  1.9251299282523053e+00  3.2920855645885356e+00  3.2318339750788345e+00  3.4102226584386361e+00  3.4146325684960148e+00  3.3857375226402864e+00  3.3740924160406340e+00  3.4249596156451361e+00  3.4286617705140658e+00  3.3908841645858749e+00  3.3780023779521313e+00  1.8525246084208395e+00  1.9597074980454252e+00  1.4725464175232146e+00  3.4388801583666049e+00  3.4418201956519536e+00  3.4301724357017243e+00  3.44240404