<?xml version="1.0"?>
<VTKFile type="UnstructuredGrid"  version="0.1"  >
<UnstructuredGrid>
<Piece  NumberOfPoints="22947" NumberOfCells="45411">
<Points>
<DataArray  type="Float64"  NumberOfComponents="3"  format="ascii">0 0 0  5 0 0  5 1 0  0 1 0  1.5 0.2 0  1.3 0.6 0  1.7 0.6 0  0.09988181715350253 0 0  0.1997636343069831 0 0  0.2996454514604577 0 0  0.3995272686139624 0 0  0.4994090857674671 0 0  0.5992909029209642 0 0  0.6991727200743116 0 0  0.7977480796387948 0 0  0.8833077882008854 0 0  0.9552465290058831 0 0  1.015928428880551 0 0  1.06737033859586 0 0  1.111317272793253 0 0  1.14931422653285 0 0  1.182777857033489 0 0  1.213067364367625 0 0  1.241543873852857 0 0  1.269517245850398 0 0  1.297484154653317 0 0  1.325451063456236 0 0  1.353417972259155 0 0  1.381384881062075 0 0  1.409351789864994 0 0  1.437318698667913 0 0  1.465285607470832 0 0  1.493252516273751 0 0  1.521219425076671 0 0  1.54918633387959 0 0  1.577153242682509 0 0  1.605120151485428 0 0  1.633087060288348 0 0  1.661053969091267 0 0  1.689020877894186 0 0  1.716987786697105 0 0  1.744954695500025 0 0  1.772921604302944 0 0  1.800888513105863 0 0  1.828855421908782 0 0  1.856822330711702 0 0  1.884789239514621 0 0  1.91275614831754 0 0  1.940723057120459 0 0  1.968689965923379 0 0  1.996656874726308 0 0  2.02462378352929 0 0  2.052590692332318 0 0  2.080557601135361 0 0  2.108524509938404 0 0  2.136491418741448 0 0  2.164458327544491 0 0  2.192425236347535 0 0  2.220392145150578 0 0  2.248359053953621 0 0  2.276325962756665 0 0  2.304292871559708 0 0  2.332259780362751 0 0  2.360226689165795 0 0  2.388193597968838 0 0  2.416160506771881 0 0  2.444127415574925 0 0  2.472094324377968 0 0  2.500061233181011 0 0  2.528028141984055 0 0  2.555995050787098 0 0  2.583961959590142 0 0  2.611928868393185 0 0  2.639895777196228 0 0  2.667862685999272 0 0  2.695829594802315 0 0  2.723796503605358 0 0  2.751763412408402 0 0  2.779730321211445 0 0  2.807697230014488 0 0  2.835664138817531 0 0  2.863631047620574 0 0  2.891597956423618 0 0  2.919564865226662 0 0  2.947531774029705 0 0  2.975498682832749 0 0  3.003466037710658 0 0  3.031764566682743 0 0  3.061630572857904 0 0  3.094429607623581 0 0  3.13021238288224 0 0  3.166169837057582 0 0  3.202127291232924 0 0  3.238084745408265 0 0  3.274042199583607 0 0  3.309999653758949 0 0  3.34595710793429 0 0  3.381914562109632 0 0  3.417872016284973 0 0  3.453829470460315 0 0  3.489786924635657 0 0  3.525744378810998 0 0  3.56170183298634 0 0  3.597659287161681 0 0  3.633616741337023 0 0  3.669574195512365 0 0  3.705531649687707 0 0  3.741489103863048 0 0  3.77744655803839 0 0  3.813404012213732 0 0  3.849361466389073 0 0  3.885318920564415 0 0  3.921276374739756 0 0  3.957233828915097 0 0  3.993191283090439 0 0  4.02914873726578 0 0  4.065106191441122 0 0  4.101063645616464 0 0  4.137021099791806 0 0  4.172978553967147 0 0  4.208936008142489 0 0  4.24489346231783 0 0  4.280850916493172 0 0  4.316808370668514 0 0  4.352765824843855 0 0  4.388723279019197 0 0  4.424680733194538 0 0  4.46063818736988 0 0  4.496595641545222 0 0  4.532553095720563 0 0  4.568510549895905 0 0  4.604468004071246 0 0  4.640425458246588 0 0  4.676382912421929 0 0  4.712340366597271 0 0  4.748297820772613 0 0  4.784255274947953 0 0  4.820212729123295 0 0  4.856170183298635 0 0  4.892127637473977 0 0  4.928085091649318 0 0  4.964042545824659 0 0  5 0.0328500670419322 0  5 0.06090401573905966 0  5 0.08486207734983149 0  5 0.1054388876402908 0  5 0.1251669432582367 0  5 0.1448949988761606 0  5 0.1646230544940819 0  5 0.1843511101120033 0  5 0.2040791657299246 0  5 0.2238072213478459 0  5 0.2435352769657672 0  5 0.2632633325836884 0  5 0.2829913882016097 0  5 0.3027194438195311 0  5 0.3224474994374524 0  5 0.3421755550553737 0  5 0.3619036106732951 0  5 0.3816316662912164 0  5 0.4013597219091377 0  5 0.421087777527059 0  5 0.4408158331449803 0  5 0.4605438887629016 0  5 0.4802719443808229 0  5 0.4999999999987551 0  5 0.519728055616775 0  5 0.5394561112348057 0  5 0.5591841668528366 0  5 0.5789122224708674 0  5 0.5986402780888981 0  5 0.6183683337069288 0  5 0.6380963893249596 0  5 0.6578244449429903 0  5 0.6775525005610212 0  5 0.6972805561790519 0  5 0.7170086117970828 0  5 0.7367366674151135 0  5 0.7564647230331443 0  5 0.776192778651175 0  5 0.7959208342692058 0  5 0.8156488898872365 0  5 0.8353769455052672 0  5 0.855105001123298 0  5 0.8748330567413287 0  5 0.8945611123593595 0  5 0.9151379226498687 0  5 0.9390959842606995 0  5 0.9671499329579316 0  4.964042545824707 1 0  4.928085091649415 1 0  4.892127637474122 1 0  4.856170183298829 1 0  4.820212729123536 1 0  4.784255274948244 1 0  4.748297820772951 1 0  4.712340366597658 1 0  4.676382912422365 1 0  4.640425458247072 1 0  4.604468004071779 1 0  4.568510549896486 1 0  4.532553095721194 1 0  4.496595641545901 1 0  4.460638187370608 1 0  4.424680733195316 1 0  4.388723279020023 1 0  4.35276582484473 1 0  4.316808370669437 1 0  4.280850916494145 1 0  4.244893462318852 1 0  4.208936008143559 1 0  4.172978553968266 1 0  4.137021099792974 1 0  4.101063645617681 1 0  4.065106191442388 1 0  4.029148737267096 1 0  3.993191283091803 1 0  3.95723382891651 1 0  3.921276374741217 1 0  3.885318920565925 1 0  3.849361466390632 1 0  3.813404012215339 1 0  3.777446558040046 1 0  3.741489103864753 1 0  3.705531649689461 1 0  3.669574195514167 1 0  3.633616741338875 1 0  3.597659287163582 1 0  3.561701832988289 1 0  3.525744378812996 1 0  3.489786924637703 1 0  3.45382947046241 1 0  3.417872016287117 1 0  3.381914562111825 1 0  3.345957107936532 1 0  3.309999653761239 1 0  3.274042199585946 1 0  3.238084745410653 1 0  3.20212729123536 1 0  3.166169837060067 1 0  3.130212382884775 1 0  3.094429607626076 1 0  3.061630572860181 1 0  3.031764566684895 1 0  3.00346603771278 1 0  2.97549868283491 1 0  2.947531774031904 1 0  2.919564865228899 1 0  2.891597956425894 1 0  2.863631047622888 1 0  2.835664138819883 1 0  2.807697230016877 1 0  2.779730321213872 1 0  2.751763412410866 1 0  2.723796503607861 1 0  2.695829594804855 1 0  2.66786268600185 1 0  2.639895777198844 1 0  2.611928868395839 1 0  2.583961959592834 1 0  2.555995050789828 1 0  2.528028141986823 1 0  2.500061233183817 1 0  2.472094324380812 1 0  2.444127415577806 1 0  2.416160506774801 1 0  2.388193597971795 1 0  2.36022668916879 1 0  2.332259780365785 1 0  2.304292871562779 1 0  2.276325962759774 1 0  2.248359053956768 1 0  2.220392145153763 1 0  2.192425236350757 1 0  2.164458327547752 1 0  2.136491418744747 1 0  2.108524509941741 1 0  2.080557601138736 1 0  2.05259069233573 1 0  2.024623783532725 1 0  1.99665687472972 1 0  1.968689965926714 1 0  1.940723057123709 1 0  1.912756148320703 1 0  1.884789239517698 1 0  1.856822330714692 1 0  1.828855421911687 1 0  1.800888513108681 1 0  1.772921604305676 1 0  1.74495469550267 1 0  1.716987786699665 1 0  1.68902087789666 1 0  1.661053969093654 1 0  1.633087060290649 1 0  1.605120151487644 1 0  1.577153242684639 1 0  1.549186333881632 1 0  1.521219425078627 1 0  1.493252516275621 1 0  1.465285607472617 1 0  1.437318698669611 1 0  1.409351789866606 1 0  1.3813848810636 1 0  1.353417972260594 1 0  1.32545106345759 1 0  1.297484154654584 1 0  1.269517245851579 1 0  1.241543873853952 1 0  1.213067364368676 1 0  1.182777857034534 1 0  1.149314226533915 1 0  1.111317272794346 1 0  1.067370338596986 1 0  1.015928428881706 1 0  0.9552465290070451 1 0  0.8833077882020213 1 0  0.7977480796398604 1 0  0.6991727200751363 1 0  0.5992909029215436 1 0  0.4994090857679536 1 0  0.3995272686143618 1 0  0.2996454514607718 1 0  0.1997636343071827 1 0  0.09988181715359001 1 0  0 0.8999999999995836 0  0 0.7999999999999998 0  0 0.7000000000006934 0  0 0.6000000000013869 0  0 0.5000000000020587 0  0 0.4000000000016644 0  0 0.3000000000012483 0  0 0.2000000000008322 0  0 0.100000000000416 0  1.699751384242739 0.6099691771530924 0  1.699006155066563 0.6199135693842884 0  1.697766165232479 0.6298084533184788 0  1.696034497548046 0.6396292287470388 0  1.693815457209259 0.649351479681627 0  1.691114561101324 0.6589510350634165 0  1.687938524092297 0.6684040288434037 0  1.684295242284711 0.6776869594669508 0  1.680193773487681 0.6867767480162182 0  1.67564431456081 0.6956507959321996 0  1.670658176173392 0.7042870409263378 0  1.665247754668492 0.7126640118983073 0  1.659426501197733 0.720760882390984 0  1.653208888346202 0.7285575222681306 0  1.646610374031267 0.7360345479149025 0  1.639647363235856 0.7431733702239103 0  1.632337167092531 0.7499562409702357 0  1.62469795989353 0.756366296874971 0  1.616748733919558 0.7623876015223461 0  1.608509252208739 0.7680051849946904 0  1.599999999406289 0.7732050810996667 0  1.591242130860608 0.7779743620750351 0  1.582257419988525 0.7823011707500295 0  1.573068204170437 0.7861747500046861 0  1.563697329302744 0.7895854694846042 0  1.554168092871136 0.7925248496031199 0  1.544504185999879 0.7949855826169927 0  1.534729634727922 0.7969615507444667 0  1.524868740094186 0.7984478414247124 0  1.514946017836289 0.7994407595022575 0  1.504986137413824 0.7999378364234504 0  1.495013860716175 0.7999378363768156 0  1.485053980351481 0.7994407593664496 0  1.475131258156531 0.7984478412054987 0  1.465270363613604 0.7969615504520329 0  1.4554958123743 0.7949855822459098 0  1.445831905597438 0.7925248491722436 0  1.436302669250897 0.7895854689986533 0  1.426931794485273 0.786174749477091 0  1.417742578777908 0.7823011701934227 0  1.408757867959409 0.7779743614700931 0  1.399999999478033 0.7732050804555297 0  1.391490746737941 0.7680051843143844 0  1.383251265066765 0.7623876007935619 0  1.375302039213222 0.7563662961626294 0  1.367662832117841 0.7499562402733849 0  1.360352636037667 0.7431733695153243 0  1.353389625336735 0.736034547233771 0  1.346791111115898 0.7285575216270866 0  1.340573498342716 0.7207608817842938 0  1.33475224496031 0.7126640113538593 0  1.329341823531611 0.7042870404435957 0  1.324355685207748 0.6956507955072012 0  1.319806226317615 0.6867767476119111 0  1.315704757542792 0.6
[...]
<PointData  Scalars="Pressure"> 
<DataArray  type="Float64"  Name="Pressure"  format="ascii">3.7267409691224955e+00  0.0000000000000000e+00  0.0000000000000000e+00  3.6979184040550073e+00  -1.3999911468086734e+00  3.8658188099306439e+00  -1.5133788977800298e+00  3.6145565602379639e+00  3.6185142276057491e+00  3.5753494749431258e+00  3.5764685013795989e+00  3.5612609674673017e+00  3.5559076826511267e+00  3.5472572516033600e+00  3.5383361004943934e+00  3.5255697995077360e+00  3.5116792273006010e+00  3.4940849059786507e+00  3.4719031683372963e+00  3.4440701679929222e+00  3.4116356097468246e+00  3.3743367084870814e+00  3.3292546641132064e+00  3.2750886104403643e+00  3.2082395306424409e+00  3.1225785148457401e+00  3.0158229259023690e+00  2.8773118330834371e+00  2.7090653437637493e+00  2.4986654951847886e+00  2.2472763769144160e+00  1.9500458872463649e+00  1.6177818763186647e+00  1.2715207634557546e+00  9.0384511717412475e-01  5.5946486112282234e-01  2.2510296307727129e-01  -6.8238311454226000e-02  -3.3536137168404379e-01  -5.6057057102568197e-01  -7.6050716806358787e-01  -9.3772847618497812e-01  -1.0842108802472419e+00  -1.2212776799677729e+00  -1.3344073645412593e+00  -1.4297133736993901e+00  -1.5107502884098694e+00  -1.5808893591545696e+00  -1.6309677636414461e+00  -1.6683197428394152e+00  -1.6870567718453418e+00  -1.6922209904278509e+00  -1.6820894129845396e+00  -1.6604577303052579e+00  -1.6218609234074650e+00  -1.5791462924337463e+00  -1.5209920554056271e+00  -1.4606705737999286e+00  -1.3959440385139574e+00  -1.3272367709482114e+00  -1.2591444755964469e+00  -1.1946898625665503e+00  -1.1333970939155702e+00  -1.0775957655390391e+00  -1.0279486996435800e+00  -9.8400203669373787e-01  -9.4628079335243009e-01  -9.1412808801472401e-01  -8.8713739593508301e-01  -8.6441943195678084e-01  -8.4542670781131857e-01  -8.2967056295871211e-01  -8.1627745368751226e-01  -8.0515360795781510e-01  -7.9571102416597828e-01  -7.8765396950511579e-01  -7.8065358714265631e-01  -7.7451436353743541e-01  -7.6917639700249074e-01  -7.6437963256329877e-01  -7.6014311242353705e-01  -7.5632541048563473e-01  -7.5288698399669585e-01  -7.4981991889324295e-01  -7.4705867792171110e-01  -7.4461868728379133e-01  -7.4249102615929208e-01  -7.4071893086887131e-01  -7.3925405323900251e-01  -7.3813770797851852e-01  -7.3767213796256503e-01  -7.3788691298262687e-01  -7.3881777838766938e-01  -7.4008574475523636e-01  -7.4184914381096689e-01  -7.4311591365880991e-01  -7.4340891966208666e-01  -7.4078155689964864e-01  -7.3544292969651581e-01  -7.2466577367067908e-01  -7.0684286439785915e-01  -6.8120196623235418e-01  -6.4505308188349952e-01  -5.9880600599574818e-01  -5.4374027343963149e-01  -4.7849326587916247e-01  -4.0774647347352061e-01  -3.3470797437138128e-01  -2.6047349384265583e-01  -1.9085539795327391e-01  -1.2846185496079521e-01  -7.3908846022769564e-02  -2.9816807963416101e-02  4.5310826253212293e-03  2.8816487853637000e-02  4.5006556098243528e-02  5.3891686531290825e-02  5.7467848233309630e-02  5.6794066221599014e-02  5.3785170426513824e-02  4.9389960606604513e-02  4.4614576418094652e-02  4.0870863173387395e-02  3.8369339829291305e-02  3.7974835652898414e-02  3.9805607621985338e-02  4.3334749097189824e-02  4.8993921107429866e-02  5.5654504011793289e-02  6.2832306814798178e-02  6.9515250035571755e-02  7.5091060558439462e-02  7.8337267044933115e-02  7.9035934321214710e-02  7.6155013639955721e-02  6.9919448287745350e-02  6.0596802943147197e-02  4.8975576771622523e-02  3.6943709362965461e-02  2.5039022576545351e-02  1.5241301938008165e-02  8.3910861117319768e-03  0.0000000000000000e+00  0.0000000000000000e+00  0.0000000000000000e+00  0.0000000000000000e+00  0.0000000000000000e+00  0.0000000000000000e+00  0.0000000000000000e+00  0.0000000000000000e+00  0.0000000000000000e+00  0.0000000000000000e+00  0.0000000000000000e+00  0.0000000000000000e+00  0.0000000000000000e+00  0.0000000000000000e+00  0.0000000000000000e+00  0.0000000000000000e+00  0.0000000000000000e+00  0.0000000000000000e+00  0.0000000000000000e+00  0.0000000000000000e+00  0.0000000000000000e+00  0.0000000000000000e+00  0.0000000000000000e+00  0.0000000000000000e+00  0.0000000000000000e+00  0.0000000000000000e+00  0.0000000000000000e+00  0.0000000000000000e+00  0.0000000000000000e+00  0.0000000000000000e+00  0.0000000000000000e+00  0.0000000000000000e+00  0.0000000000000000e+00  0.0000000000000000e+00  0.0000000000000000e+00  0.0000000000000000e+00  0.0000000000000000e+00  0.0000000000000000e+00  0.0000000000000000e+00  0.0000000000000000e+00  0.0000000000000000e+00  0.0000000000000000e+00  0.0000000000000000e+00  0.0000000000000000e+00  0.0000000000000000e+00  0.0000000000000000e+00  0.0000000000000000e+00  4.0360996660920784e-01  -6.6129472189719631e-03  -2.3790300904237147e-01  -5.1384590684715981e-01  -7.2194644481978243e-01  -8.9643408332778451e-01  -1.0403030547095138e+00  -1.1303846047917432e+00  -1.1909639951844961e+00  -1.1939054592455727e+00  -1.1764092001106286e+00  -1.1152874972225717e+00  -1.0476439632597470e+00  -9.7008918013818701e-01  -9.0472999129755172e-01  -8.5133613836676902e-01  -8.1319658639893377e-01  -7.8693532930551280e-01  -7.6996292822082757e-01  -7.6012848262825428e-01  -7.5565661563288411e-01  -7.5385278043870863e-01  -7.5255057159501426e-01  -7.5045090576904994e-01  -7.4732726132894678e-01  -7.4275282895841099e-01  -7.3668203820658062e-01  -7.2881252833048327e-01  -7.1935548699398622e-01  -7.0877592394573075e-01  -6.9761185702392137e-01  -6.8653072737033005e-01  -6.7576929417435516e-01  -6.6558659683255750e-01  -6.5610996762912910e-01  -6.4742430561579956e-01  -6.4000429011602955e-01  -6.3414271775674524e-01  -6.3042374767504095e-01  -6.2858731193653494e-01  -6.2900008679197961e-01  -6.3095262942686869e-01  -6.3387564478548808e-01  -6.3729136104880169e-01  -6.4076765755831766e-01  -6.4384608398351273e-01  -6.4643275305546188e-01  -6.4844567109322082e-01  -6.5004235328579774e-01  -6.5141663771070490e-01  -6.5274904556159907e-01  -6.5409802696652730e-01  -6.5555015387781179e-01  -6.5693698642085274e-01  -6.5820055493320928e-01  -6.5939938312094282e-01  -6.6056734637463632e-01  -6.6171578226568883e-01  -6.6287265741181367e-01  -6.6407113368422011e-01  -6.6537363721213449e-01  -6.6682929000919622e-01  -6.6850347502106655e-01  -6.7045367017681856e-01  -6.7272952564772881e-01  -6.7540327979933257e-01  -6.7855066890801474e-01  -6.8229703638783279e-01  -6.8672846450484271e-01  -6.9208181650249712e-01  -6.9847175998011812e-01  -7.0611505837296029e-01  -7.1531220927784422e-01  -7.2649419214755451e-01  -7.3981542713849269e-01  -7.5613931564495040e-01  -7.7547654668725952e-01  -7.9872854346194189e-01  -8.2629719690062930e-01  -8.5877200429303580e-01  -8.9638554756059929e-01  -9.3899028616291891e-01  -9.8660435470729346e-01  -1.0390681794204930e+00  -1.0948802743611259e+00  -1.1526378748113471e+00  -1.2112266359077615e+00  -1.2691568543066087e+00  -1.3219364553812467e+00  -1.3701373238669121e+00  -1.4132692742930575e+00  -1.4458479537430105e+00  -1.4698647548385249e+00  -1.4880583164196226e+00  -1.4985702222767827e+00  -1.4983674906921998e+00  -1.4968744015370621e+00  -1.4880783881516570e+00  -1.4694029821560053e+00  -1.4522078151507818e+00  -1.4238548745024786e+00  -1.3892798756403146e+00  -1.3445434415161948e+00  -1.2864560780671626e+00  -1.2098599981817417e+00  -1.1102711243130032e+00  -9.6298911634012874e-01  -8.2278270327911274e-01  -5.8389847759777214e-01  -3.3005041067149149e-01  -3.1698848956309110e-02  2.8625334323856738e-01  6.3028520751221839e-01  9.8014218124478580e-01  1.3178451966699272e+00  1.6319996492356859e+00  1.9057073828895243e+00  2.1507141373096856e+00  2.3697297446439149e+00  2.5540936657336726e+00  2.7085144405003181e+00  2.8605683659416048e+00  2.9826412180277719e+00  3.1009158336361855e+00  3.1972567846687387e+00  3.2820045798800721e+00  3.3459434307177918e+00  3.3992870273743607e+00  3.4477285740643646e+00  3.4726968063151320e+00  3.5027313138581975e+00  3.5274349475243478e+00  3.5373644469974939e+00  3.5864180239783372e+00  3.5878207928612791e+00  3.6328106612270266e+00  3.5911968535967955e+00  3.5821781741906036e+00  3.5804741896160830e+00  3.5825972886641835e+00  3.5881802581702784e+00  3.5983496319626265e+00  3.6109218110008996e+00  3.6580117434263775e+00  -1.6267769063918389e+00  -1.5859159716731339e+00  -1.5788245962983534e+00  -1.5605234336275424e+00  -1.5414391453221123e+00  -1.5228235249709410e+00  -1.5058469518703939e+00  -1.4908400115818063e+00  -1.4776940013868316e+00  -1.4660005095426591e+00  -1.4561473292519269e+00  -1.4493615621860687e+00  -1.4475403642118976e+00  -1.4521129117860323e+00  -1.4627685654588141e+00  -1.4781342442482310e+00  -1.4965343829294309e+00  -1.5175807299657498e+00  -1.5438064954144028e+00  -1.5767820050232149e+00  -1.6187986113100432e+00  -1.6720499715170829e+00  -1.7371871401549819e+00  -1.8155599140473551e+00  -1.9064179194814821e+00  -2.0084011858863922e+00  -2.1164749919087660e+00  -2.2252345106780465e+00  -2.3276283088345666e+00  -2.4170166954024297e+00  -2.4822245140376213e+00  -2.5205817829391424e+00  -2.5223323966037494e+00  -2.4860588970487472e+00  -2.4112538056313078e+00  -2.2956349875659177e+00  -2.1430892606727419e+00  -1.9596328667725569e+00  -1.7387166652528261e+00  -1.4967301585894002e+00  -1.2366755535108882e+00  -9.5513276105551392e-01  -6.5971183414541201e-01  -3.6654435066634339e-01  -5.6590278714673592e-02  2.4411415402153663e-01  5.5045257094736755e-01  8.5181787818797916e-01  1.1411850856431469e+00  1.4212306855582759e+00  1.6942631739182998e+00  1.9551237411487983e+00  2.1976563269505309e+00  2.4320773552401382e+00  2.6488667104053341e+00  2.8492446013389139e+00  3.0344437320983708e+00  3.2041596247003379e+00  3.3552480158829621e+00  3.4886316723384687e+00  3.6131747616532293e+00  3.6864115498765364e+00  4.0169462106881149e+00  4.0454975690052040e+00  4.0728175533731408e+00  4.0875924909226837e+00  4.0956321076371633e+00  4.0986323061235259e+00  4.0979474714464290e+00  4.0944858077072217e+00  4.0885148429737406e+00  4.0805261306932152e+00  4.0707347143460542e+00  4.0593008078138064e+00  4.0463672213869497e+00  4.0319886765076900e+00  4.0162219717963659e+00  3.9990586478752492e+00  3.9804870013767402e+00  3.9604623706550535e+00  3.9389309261578993e+00  3.9158929375572158e+00  3.8909282262148230e+00  3.8643760692201745e+00  3.8356838182631980e+00  3.8049720117494781e+00  3.7717097093712337e+00  3.7359036355296267e+00  3.6970736468931120e+00  3.6547379512543885e+00  3.6087746407874541e+00  3.5584856355262509e+00  3.5032118009327640e+00  3.4420583981313748e+00  3.3739841508585582e+00  3.2976682512228082e+00  3.2114797984862902e+00  3.1130748309501621e+00  2.9995540714621480e+00  2.8661973195987698e+00  2.7083324873595913e+00  2.5158298442365870e+00  2.2739709542430675e+00  1.9569384389597939e+00  1.5071694676754079e+00  7.4892416133101558e-01  -1.1990685241524763e+00  -1.0526512942989552e+00  -1.0223581310438827e+00  -1.0051340244416682e+00  -9.9740108110309200e-01  -9.9456039722685696e-01  -9.9415792521741109e-01  -9.9501742253848080e-01  -9.9646140819242646e-01  -9.9813739908362609e-01  -9.9987127667568743e-01  -1.0015417769520214e+00  -1.0030409670907514e+00  -1.0042487180199127e+00  -1.0050142136913034e+00  -1.0051673268481152e+00  -1.0045116884723748e+00  -1.0028479458434132e+00  -9.9997447348680157e-01  -9.9571134198211919e-01  -9.8992571421005748e-01  -9.8252983470438238e-01  -9.7353195941354687e-01  -9.6303970188191546e-01  -9.5125152374358890e-01  -9.3852495357953070e-01  -9.2532510803539925e-01  -9.1221499837160935e-01  -8.9993727476837759e-01  -8.8921038342513348e-01  -8.8094770646961329e-01  -8.7594192832929407e-01  -8.7513543844730313e-01  -8.7926415426478999e-01  -8.8910450672575336e-01  -9.0535497234060169e-01  -9.2842953261173922e-01  -9.5891077190977092e-01  -9.9693985123892814e-01  -1.0431762863505376e+00  -1.0977684927082696e+00  -1.1619115941205187e+00  -1.2386308845487755e+00  -1.3180536147270279e+00  -1.2982307862926101e+00  -9.2458596088878664e-01  -8.9857762612834446e-01  -1.5532471624100022e+00  -1.4805149617005973e+00  -1.1155139193638557e+00  -9.6815030469377272e-01  -1.0016486112208638e+00  -4.9499666257277947e-02  -1.5379227777983033e+00  -1.4807333555576709e+00  -6.6119427521090635e-01  -7.6228764229926937e-01  -6.8078918232940699e-01  -8.5313867695341294e-01  -7.8617348069039839e-01  -1.0949001490637731e+00  -7.4324759167749810e-01  -1.6840567112206264e+00  3.9880249901068479e+00  4.0801304546174979e+00  4.0078967919564867e+00  3.8434609782763189e+00  3.6269641437262807e+00  -2.4153318507853745e-02  -7.9141754420520471e-01  -6.6781749946013147e-01  -7.1015115204699464e-01  -6.5507705962791662e-01  5.9002027692674340e-02  -9.9432249993180355e-01  -1.1094654378762801e-01  -1.3903421241170519e+00  3.3284824589978022e+00  2.7710263941821194e+00  1.0878136106498015e+00  -1.0009046115969369e+00  -9.9572097901222423e-01  -1.0480228525527895e+00  -9.3373086094283748e-03  -7.3919470446749258e-01  -6.3896260573966912e-01  -6.6186757886847547e-01  -6.4407163163299141e-01  -1.5785909508986615e-01  -7.2404838471582034e-01  5.7258264305165826e-02  -7.5791358206486104e-01  3.8309370055384567e-02  -1.5538431399211681e+00  3.6585557267642956e+00  3.1142824140629566e+00  2.3396136082160628e+00  -1.4515385599657731e+00  -1.4904796698662059e+00  -1.3881567723176452e-01  3.3897609213121500e+00  -1.2080326294636079e+00  7.9958514118154272e-02  -1.1522653032229175e+00  1.2964911136980042e+00  -7.3708526305973232e-01  -9.1247501880189619e-01  1.4113828591205812e-02  -4.4331819827016428e-01  -7.3624321461074660e-01  -7.4795587629240923e-01  -6.2946203099680464e-01  -6.4984208401519561e-01  -6.8106953251069768e-01  4.0911938651206965e+00  -1.3580119434043927e-01  -6.0171634909051220e-03  3.5045165593780045e+00  -1.4894352127301731e+00  1.1105478593822396e-01  3.1639658620787214e+00  3.3745266193361916e+00  -1.4744786092391819e+00  -1.5518973537070293e+00  -7.7577696447650080e-01  -1.6949823495558429e+00  -1.9347778939741800e+00  -2.2446814946779559e+00  -2.4672113509365907e+00  -2.4095372355321638e+00  -2.0115189720878455e+00  3.0348321053574390e+00  -4.3011924507584032e-01  2.6386955804848604e+00  -1.4029939531144713e+00  2.7897009305600284e+00  2.0142345783628839e+00  5.6397781610771767e-02  -7.9511803357807054e-01  -9.2976997124273175e-01  -1.2847360588462813e+00  -7.5125194099732762e-01  4.7569566842208297e-02  -8.3034734941465549e-01  4.2432208449812664e-01  -1.0793367310644841e+00  -8.8370831619971291e-01  -9.3376126575825469e-01  3.7500749417366164e+00  -9.9132719640869027e-01  4.0360914726766230e+00  3.9258290215319658e+00  -1.1034384315244292e-01  -7.0998824957270001e-02  -4.6973934930405322e-03  -3.1118667232525231e-02  3.5440345622380858e+00  -1.2516328849040816e+00  1.1148909585986189e+00  3.4957928249581403e+00  2.0534854700316290e+00  -8.9588139642941367e-01  3.5843319912011742e+00  1.2599864336271874e-01  -5.3162282697054926e-04  3.5689347457088703e+00  3.2497288948959704e+00  -1.5073711231288436e+00  -1.4607303645059311e+00  -1.4615177589533064e+00  -1.5679779572717123e+00  2.7628851294968086e+00  -1.3572226198263020e+00  7.3350672092677405e-01  3.4183089213761999e+00  1.8471115349314913e+00  3.4590548315875789e+00  -1.4042750680938629e-01  -6.5783055527322976e-01  -7.3944896409612326e-01  3.3002350290179829e+00  -1.6333033779571335e+00  -1.6767323356627972e+00  -7.7772553919166876e-01  -9.9501976175788209e-01  -8.2065463471124789e-01  -1.2898707319690632e+00  -6.6357633840543984e-01  -1.0039767240722670e+00  -6.7173229724660999e-01  -6.9518208213458776e-01  -1.4943332408124737e+00  -4.5837707316452753e-01  -7.4531018267530680e-01  -8.3260619136012715e-01  -1.4527269441267885e+00  -8.6485027799193448e-01  -1.3814753136566393e+00  1.0449627947367155e+00  5.0379855082897371e-02  -7.4154405879135832e-01  4.6505408992987982e-02  -5.7468107204396623e-01  -5.6843389022461631e-02  7.3588394285402398e-02  -3.1084963116287162e-01  -7.3705659845442240e-01  -7.1651865715982810e-01  3.2033636908799026e-02  7.4964074252583501e-02  -6.5284280659940308e-01  -6.3275864961567341e-01  -1.1513335386258625e+00  -7.5319441769094575e-01  -6.6260080277013589e-01  -6.3354230320215166e-01  -6.4545699356199970e-01  -1.0859985837139059e+00  -7.7579978638791935e-01  -7.3796341850224301e-01  -7.0358991682626482e-01  3.5424917280917265e+00  3.5800841714579525e+00  -9.8619000601623030e-01  -8.8380108674011637e-01  3.5256103126612515e+00  3.1539119223630503e+00  2.3669470595790201e+00  4.0616458687362087e+00  -1.0061034205408736e+00  4.0916655565651601e+00  4.0701930045010206e+00  -1.2072804170318698e+00  -1.1506680393900717e+00  -1.0410654942167750e+00  -7.9228733426096409e-01  -9.7397868598768933e-01  -4.1561339957468602e-01  -2.7191757819408019e-01  2.0358186468353293e-01  2.2653800979373775e-01  6.3261171995545229e-01  6.0216638682230450e-01  9.3939064322923349e-01  2.6906311247299075e-01  8.8790348307468037e-01  1.1725536510996113e+00  1.2565219840178266e+00  1.4357307595281825e+00  1.5396669395251033e+00  1.6758942423013912e+00  1.7857682698379469e+00  1.8874225625463317e+00  1.9965572397656621e+00  2.0721834555943119e+00  2.1768984308128654e+00  2.2331809019463722e+00  2.3316298737463765e+00  2.3735709449282578e+00  2.4650566767920510e+00  2.4341865936120888e+00  2.5587581911690003e+00  2.5386537448164015e+00  2.6529876360433109e+00  2.6662855910266567e+00  2.7515084151116480e+00  2.7461029505716983e+00  2.8352548171694538e+00  2.8366833955472703e+00  2.9165120051005782e+00  2.9128065536648329e+00  2.9861371694005543e+00  2.9945036956931861e+00  3.0565411124916309e+00  3.0686987474779883e+00  3.1236296580533169e+00  3.1387872420444567e+00  3.1871734251387114e+00  3.1721269477842866e+00  3.2300192600222943e+00  3.2470725470315993e+00  3.2847450210649063e+00  3.3033316345977104e+00  3.3362971369321639e+00  3.3560265210219615e+00  3.3847346420594984e+00  3.3656505016601979e+00  3.4102977427441479e+00  3.4301512877503963e+00  3.4522682453837406e+00  3.4726559383170450e+00  3.4916585042136261e+00  3.5124015062754737e+00  3.5285412164123535e+00  3.5495068924722890e+00  3.5630742452659483e+00  3.5841190305538069e+00  3.5953297097826225e+00  3.6163784640075498e+00  3.6254208708600584e+00  3.6464024998022651e+00  3.6531023616215643e+00  3.6330886197324155e+00  3.6742570953739757e+00  3.6790351267795849e+00  3.7001247440450373e+00  3.7036640199447848e+00  3.7242334729087339e+00  3.7261761863740150e+00  3.7464159359034821e+00  3.7472826548533136e+00  3.7669466738214705e+00  3.7656450815078832e+00  3.5084519295654468e+00  3.7272727973540096e+00  3.7668428832959320e+00  3.7869860930034056e+00  3.6678129856134118e+00  3.7873491480211907e+00  3.8071248611757174e+00  3.5340511417488352e+00  3.8078505366059638e+00  3.8272671008696051e+00  3.8282467507913549e+00  3.8472805254625051e+00  3.8449689067566206e+00  3.8645938639207138e+00  3.8610231849280310e+00  3.8802412298741475e+00  3.8754369259741224e+00  3.8942419203942507e+00  3.8886602773050210e+00  3.9066964092949354e+00  3.8997431068665263e+00  3.9128155391468784e+00  3.9247664350953220e+00  2.9807319704463739e+00  3.3237890763964058e+00  3.2150973873300699e+00  3.3917745637875667e+00  3.8670683648924893e+00  3.9310350042398343e+00  3.9425461016932979e+00  3.0839607076006361e+00  3.9488468192592721e+00  3.9599143417782976e+00  3.9523780302233686e+00  3.9692723173313547e+00  3.9604991297705157e+00  3.9768756195251314e+00  3.9668428281472665e+00  3.9826418347973678e+00  3.9713632616287300e+00  1.1134720041299488e+00  1.7914804844279208e+00  2.2858276356742055e+00  2.4140155238286924e+00  3.8715226659944455e+00  3.8074396276225757e+00  3.9927208668207808e+00  3.9978826553512463e+00  3.9661480296346805e+00  3.9538250671784088e+00  4.0079321863239414e+00  4.0124575048826943e+00  3.9709362386829641e+00  3.9573527559276069e+00  2.3350065979618861e+00  2.4528576957634134e+00  1.9128452624071666e+00  4.0223887624451109e+00  4.0262398658541603e+00  4.0148534878204725e+00  4.027816