<?xml version="1.0"?>
<VTKFile type="UnstructuredGrid"  version="0.1"  >
<UnstructuredGrid>
<Piece  NumberOfPoints="25087" NumberOfCells="49212">
<Points>
<DataArray  type="Float64"  NumberOfComponents="3"  format="ascii">0 0 0  0.75 0 0  0.85 0 0  1.8 0 0  1.8 0.1 0  0 0.1 0  0.009939587277681541 0 0  0.01987917455536239 0 0  0.02981876183304314 0 0  0.03975834911072389 0 0  0.04969793638840794 0 0  0.05963752366609719 0 0  0.06957711094378713 0 0  0.07951669822147707 0 0  0.08945628549916627 0 0  0.09939587277684642 0 0  0.109335460054518 0 0  0.1192750473321896 0 0  0.1292146346098671 0 0  0.1391542218875571 0 0  0.149093809165247 0 0  0.1590333964429369 0 0  0.1689729837206268 0 0  0.1789125709983168 0 0  0.1888521582760067 0 0  0.1987917455536966 0 0  0.2087313328313865 0 0  0.2186709201090765 0 0  0.2286105073867664 0 0  0.2385500946644563 0 0  0.2484896819421462 0 0  0.2584292692198362 0 0  0.2683688564975261 0 0  0.278308443775216 0 0  0.288248031052906 0 0  0.2981876183305959 0 0  0.3081272056082858 0 0  0.3180667928859758 0 0  0.3280063801636657 0 0  0.3379459674413556 0 0  0.3478855547190456 0 0  0.3578251419967355 0 0  0.3677647292744254 0 0  0.3777043165521413 0 0  0.3876439038298989 0 0  0.3975834911076623 0 0  0.4075230783854257 0 0  0.4174626656631892 0 0  0.4274022529409527 0 0  0.4373418402187161 0 0  0.4472814274964795 0 0  0.457221014774243 0 0  0.4671606020520065 0 0  0.4771001893297699 0 0  0.4870397766075334 0 0  0.4969793638852968 0 0  0.5067309463239997 0 0  0.5157711254978494 0 0  0.5241202977806269 0 0  0.5318312802296193 0 0  0.5389528546926976 0 0  0.5455300745089914 0 0  0.5516045497071054 0 0  0.5572147069557104 0 0  0.562396037778403 0 0  0.5671813217260944 0 0  0.5716008310492434 0 0  0.5756825257083404 0 0  0.5794522250791264 0 0  0.582933778518776 0 0  0.5861492110966979 0 0  0.5891188647964261 0 0  0.5918615250678128 0 0  0.5943945443357254 0 0  0.5967339452616621 0 0  0.5988945293659402 0 0  0.6009061908335473 0 0  0.6028941082891001 0 0  0.6048820257446528 0 0  0.6068699432002055 0 0  0.6088578606557582 0 0  0.6108457781113108 0 0  0.6128336955668636 0 0  0.6148216130224162 0 0  0.616809530477969 0 0  0.6187974479335216 0 0  0.6207853653890744 0 0  0.6227732828446271 0 0  0.6247612003001798 0 0  0.6267491177557325 0 0  0.6287370352112852 0 0  0.6307249526668378 0 0  0.6327128701223905 0 0  0.6347007875779432 0 0  0.6366887050334959 0 0  0.6386766224890487 0 0  0.6406645399446014 0 0  0.642652457400154 0 0  0.6446403748557068 0 0  0.6466282923112595 0 0  0.6486162097668122 0 0  0.6506041272223648 0 0  0.6525920446779175 0 0  0.6545799621334703 0 0  0.656567879589023 0 0  0.6585557970445757 0 0  0.6605437145001284 0 0  0.6625316319556811 0 0  0.6645195494112337 0 0  0.6665074668667865 0 0  0.6684953843223391 0 0  0.6704833017778919 0 0  0.6724712192334446 0 0  0.6744591366889973 0 0  0.67644705414455 0 0  0.6784349716001027 0 0  0.6804228890556554 0 0  0.6824108065112081 0 0  0.6843987239667607 0 0  0.6863866414223134 0 0  0.6883745588778661 0 0  0.6903624763334189 0 0  0.6923503937889716 0 0  0.6943383112445243 0 0  0.696326228700077 0 0  0.6983141461556297 0 0  0.7003020636111823 0 0  0.7022899810667351 0 0  0.7042778985222878 0 0  0.7062658159778404 0 0  0.7082537334333932 0 0  0.7102416508889459 0 0  0.7122295683444986 0 0  0.7142174858000513 0 0  0.716205403255604 0 0  0.7181933207111566 0 0  0.7201812381667094 0 0  0.722169155622262 0 0  0.7241570730778149 0 0  0.7261449905333676 0 0  0.7281329079889202 0 0  0.7301208254444729 0 0  0.7321087429000257 0 0  0.7340966603555783 0 0  0.7360845778111311 0 0  0.7380724952666838 0 0  0.7400604127222364 0 0  0.7420483301777892 0 0  0.7440362476333419 0 0  0.7460241650888946 0 0  0.7480120825444474 0 0  0.8519928290587546 0 0  0.8539856581175093 0 0  0.855978487176264 0 0  0.8579713162350187 0 0  0.8599641452937733 0 0  0.8619569743525279 0 0  0.8639498034112826 0 0  0.8659426324700373 0 0  0.867935461528792 0 0  0.8699282905875466 0 0  0.8719211196463013 0 0  0.873913948705056 0 0  0.8759067777638107 0 0  0.8778996068225653 0 0  0.8798924358813199 0 0  0.8818852649400746 0 0  0.8838780939988293 0 0  0.885870923057584 0 0  0.8878637521163386 0 0  0.8898565811750933 0 0  0.8918494102338479 0 0  0.8938422392926026 0 0  0.8958350683513573 0 0  0.8978278974101119 0 0  0.8998207264688666 0 0  0.9018135555276212 0 0  0.903806384586376 0 0  0.9057992136451306 0 0  0.9077920427038852 0 0  0.9097848717626399 0 0  0.9117777008213945 0 0  0.9137705298801493 0 0  0.9157633589389039 0 0  0.9177561879976586 0 0  0.9197490170564132 0 0  0.921741846115168 0 0  0.9237346751739226 0 0  0.9257275042326772 0 0  0.9277203332914319 0 0  0.9297131623501866 0 0  0.9317059914089413 0 0  0.9336988204676959 0 0  0.9356916495264506 0 0  0.9376844785852052 0 0  0.93967730764396 0 0  0.9416701367027146 0 0  0.9436629657614692 0 0  0.9456557948202239 0 0  0.9476486238789785 0 0  0.9496414529377333 0 0  0.9516342819964879 0 0  0.9536271110552426 0 0  0.9556199401139972 0 0  0.957612769172752 0 0  0.9596055982315066 0 0  0.9615984272902612 0 0  0.9635912563490159 0 0  0.9655840854077706 0 0  0.9675769144665253 0 0  0.9695697435252775 0 0  0.9715625725840263 0 0  0.9735554016427752 0 0  0.9755482307015241 0 0  0.9775410597602689 0 0  0.9795338888190119 0 0  0.9815267178777549 0 0  0.9835195469364979 0 0  0.9855123759952465 0 0  0.9875052050539954 0 0  0.9894980341127442 0 0  0.9914908631714945 0 0  0.9934836922302491 0 0  0.9954765212890038 0 0  0.9974693503477584 0 0  0.9994621794065132 0 0  1.001455008465268 0 0  1.003447837524022 0 0  1.005440666582777 0 0  1.007433495641532 0 0  1.009426324700286 0 0  1.011419153759041 0 0  1.013411982817796 0 0  1.01540481187655 0 0  1.017397640935305 0 0  1.01939046999406 0 0  1.021383299052814 0 0  1.023376128111569 0 0  1.025368957170324 0 0  1.027361786229078 0 0  1.029354615287833 0 0  1.031347444346588 0 0  1.033340273405342 0 0  1.035333102464097 0 0  1.037325931522852 0 0  1.039318760581606 0 0  1.041311589640361 0 0  1.043304418699116 0 0  1.04529724775787 0 0  1.047290076816625 0 0  1.04928290587538 0 0  1.051275734934134 0 0  1.053268563992889 0 0  1.055261393051644 0 0  1.057254222110398 0 0  1.059247051169153 0 0  1.061239880227908 0 0  1.063232709286662 0 0  1.065225538345417 0 0  1.067218367404172 0 0  1.069211196462926 0 0  1.071204025521681 0 0  1.073196854580436 0 0  1.07518968363919 0 0  1.077182512697945 0 0  1.0791753417567 0 0  1.081168170815454 0 0  1.083160999874209 0 0  1.085153828932964 0 0  1.087146657991718 0 0  1.089139487050473 0 0  1.091132316109228 0 0  1.093125145167982 0 0  1.095117974226737 0 0  1.097110803285491 0 0  1.099103632344246 0 0  1.101096461403001 0 0  1.103089290461756 0 0  1.10508211952051 0 0  1.107074948579265 0 0  1.10906777763802 0 0  1.111060606696774 0 0  1.113053435755529 0 0  1.115046264814284 0 0  1.117039093873038 0 0  1.119031922931793 0 0  1.121024751990547 0 0  1.123017581049302 0 0  1.125010410108057 0 0  1.127003239166811 0 0  1.128996068225566 0 0  1.130988897284321 0 0  1.132981726343075 0 0  1.13497455540183 0 0  1.136967384460585 0 0  1.13896021351934 0 0  1.140953042578094 0 0  1.142945871636849 0 0  1.144938700695604 0 0  1.146931529754358 0 0  1.148924358813113 0 0  1.150917187871868 0 0  1.152910016930622 0 0  1.154902845989377 0 0  1.156895675048131 0 0  1.158888504106886 0 0  1.160881333165641 0 0  1.162874162224395 0 0  1.16486699128315 0 0  1.166859820341905 0 0  1.168852649400659 0 0  1.170845478459414 0 0  1.172838307518169 0 0  1.174831136576924 0 0  1.176823965635678 0 0  1.178816794694433 0 0  1.180809623753187 0 0  1.182802452811942 0 0  1.184795281870697 0 0  1.186788110929451 0 0  1.188780939988206 0 0  1.190773769046961 0 0  1.192766598105715 0 0  1.19475942716447 0 0  1.196752256223225 0 0  1.198745085281979 0 0  1.200748912638162 0 0  1.20288546443348 0 0  1.205199299294777 0 0  1.207705128061463 0 0  1.2104188818489 0 0  1.213357812369785 0 0  1.216540604460539 0 0  1.219987493828263 0 0  1.223720393159986 0 0  1.227763034966436 0 0  1.232141120812665 0 0  1.23688248446048 0 0  1.242017269350748 0 0  1.247578120948599 0 0  1.253600390288261 0 0  1.260122366103743 0 0  1.267185511970863 0 0  1.274834732580962 0 0  1.283118657571247 0 0  1.292089952249604 0 0  1.30179273530951 0 0  1.311756880603283 0 0  1.321721025897057 0 0  1.33168517119083 0 0  1.341649316484614 0 0  1.351613461778471 0 0  1.36157760707236 0 0  1.371541752366183 0 0  1.381505897659957 0 0  1.391470042953772 0 0  1.401434188247646 0 0  1.411398333541451 0 0  1.421362478835224 0 0  1.431326624129069 0 0  1.44129076942293 0 0  1.451254914716717 0 0  1.461219060010506 0 0  1.471183205304368 0 0  1.481147350598211 0 0  1.491111495891984 0 0  1.501075641185789 0 0  1.511039786479664 0 0  1.521003931773478 0 0  1.530968077067251 0 0  1.540932222361076 0 0  1.550896367654947 0 0  1.560860512948745 0 0  1.570824658242518 0 0  1.580788803536311 0 0  1.590752948830143 0 0  1.600717094123925 0 0  1.610681239417698 0 0  1.620645384711508 0 0  1.630609530005332 0 0  1.640573675299105 0 0  1.650537820592878 0 0  1.660501965886704 0 0  1.670466111180512 0 0  1.680430256474285 0 0  1.690394401768069 0 0  1.7003585470619 0 0  1.710322692355692 0 0  1.720286837649466 0 0  1.730250982943265 0 0  1.740215128237097 0 0  1.750179273530885 0 0  1.760143418824716 0 0  1.770107564118548 0 0  1.780071709412366 0 0  1.790035854706168 0 0  1.8 0.0001 0  1.8 0.00023 0  1.8 0.000399 0  1.8 0.0006187 0  1.8 0.0009043100000000001 0  1.8 0.001275603 0  1.8 0.0017582839 0  1.8 0.01140662711998408 0  1.8 0.02105497033995717 0  1.8 0.03070331355992841 0  1.8 0.04035165677989965 0  1.8 0.0499999999998722 0  1.8 0.05964834321989785 0  1.8 0.06929668643992376 0  1.8 0.07894502965995151 0  1.8 0.08859337287997926 0  1.8 0.0982417161 0  1.8 0.09872439700000001 0  1.8 0.09909569 0  1.8 0.09938130000000001 0  1.8 0.09960100000000001 0  1.8 0.09977000000000001 0  1.8 0.0999 0  1.790017325432064 0.1 0  1.780034650
[...]
<PointData  Scalars="f_110"> 
<DataArray  type="Float64"  Name="f_110"  format="ascii">7.0885970589664043e-05  3.8691979079190632e-06  -8.7949277863583869e-07  -8.8385274531215929e-04  8.8527548049991767e-04  -1.0665631770487496e-05  1.7290537451933227e-05  -1.4355878521831307e-04  -8.6278099313867476e-05  8.5627070777339175e-05  1.3831132828222097e-04  1.2110331848124869e-04  4.2993719127492709e-05  -5.0590805645818386e-06  5.3943655378899506e-06  8.4747759757835736e-06  -4.3230063476350521e-06  -2.1390218021498307e-07  1.4284686989375739e-06  3.8615143976962880e-06  2.5489572831658722e-06  6.3229396116686350e-06  8.9919758101802306e-06  5.8211422174713046e-06  -5.5357666872393084e-06  -1.1138220077924020e-06  1.9068483319500871e-05  2.8722531865065530e-05  3.6924761265158828e-05  6.8221830640134552e-05  1.0036725548280038e-04  4.2832959627773647e-05  -9.6872138231056640e-06  6.5850245308471629e-06  5.4389668796897488e-06  3.9031236300064031e-06  -6.2252425666655974e-06  4.5911478024705560e-06  2.6047139967553681e-05  3.2764161330171858e-05  3.0129272687964544e-05  -2.9586113028560210e-05  -4.6495958042974828e-05  -1.5095039187119499e-05  -4.6463343367628166e-06  1.2795372261619041e-05  1.3095263673873555e-05  1.9949766165539715e-05  2.2795466038615482e-05  -4.3914536082466861e-06  -1.2197396855542857e-05  -5.5759297426632962e-06  -1.3075797960326258e-05  -1.7023274675038017e-05  -9.0339491127328134e-06  -6.4675182987444397e-05  -1.4252179351596913e-04  -2.1623281254974958e-04  -1.4126962578673799e-04  -3.6772772554450527e-04  -2.5347110708261286e-04  1.1865036505793966e-04  5.9546991964394383e-05  -3.1366059614298974e-04  4.4062088989689482e-06  3.3644035224753404e-05  -1.6326628386834606e-04  -3.7091027062198803e-05  -1.0137735876632938e-04  -8.4122432288966049e-05  -8.0316301008845556e-05  4.7062114928964245e-05  3.4428765667919518e-05  -1.0596486681795818e-04  -7.3151113598694895e-05  -3.7466837741990724e-05  -9.7865079994700933e-06  9.5822319883597467e-06  -6.0337471788635003e-06  4.3108759283900998e-06  -1.3569110218873468e-06  3.4768918525982985e-06  1.9277158694041855e-06  -3.1123934266039033e-06  -4.1106742913065958e-06  -3.2617874040360860e-06  -3.0730158063719377e-06  -2.4188535287575907e-06  -4.2077426622833445e-07  -8.9596119124272557e-07  -9.8980587248416673e-07  -2.4642957833536336e-06  -2.0892941699554379e-06  -6.4298076820930580e-07  -1.7238699485625368e-06  -5.6298404326801022e-06  -5.3987201137110732e-06  2.3735849282350550e-06  -1.1047123159794294e-06  -1.1183676580440413e-05  -5.3549330083458508e-06  -2.8093917879353629e-06  1.5120780022202312e-06  3.1733801964376032e-06  3.0493708044947303e-07  -6.3757939736852065e-06  -5.0703259370580818e-06  -3.6008846954681108e-06  7.0918352256332060e-06  9.4433923669219618e-08  3.7011693247500540e-06  2.0732304520673652e-06  -1.0791283638139023e-05  -5.7264555569979423e-06  -1.0264951953780837e-05  -8.8871957920156568e-06  -1.0094786419337750e-05  -8.8985736201411549e-06  -6.8636060873756299e-06  -8.5368152278585344e-06  -5.5226246097910950e-06  -6.0616525206089553e-06  -6.2501424943009507e-06  -5.6450599997312137e-06  -4.9621342827785325e-06  -6.9930946349789285e-06  1.3966441097414848e-05  5.5753429333601385e-06  -1.0250316119566676e-05  -5.2581399485570599e-06  -7.6983426639591140e-06  -7.3848576681743748e-06  -8.4403969619028770e-06  -1.2121078011803578e-05  -2.3297551691115904e-05  1.1526539887090649e-05  -1.1200624463875822e-06  8.2278273205453294e-06  7.1394194445584391e-06  -1.7373253483460274e-05  -1.3606392655085431e-05  1.7162439357953068e-05  -1.8961307721183292e-06  8.0986815944856989e-06  9.8916389736201858e-06  -2.6071817767478972e-05  -2.2563427108335814e-05  -1.3827859246162033e-05  2.4577292390170502e-05  9.4646914124536590e-06  6.6828479924077365e-06  2.8116499036625354e-06  -1.8009460564172702e-06  1.5257032103757449e-05  1.4140743948258473e-05  1.6156845638868790e-05  1.5102852058538790e-05  1.5350684140316288e-05  1.5585793685758802e-05  1.6034788711583778e-05  1.3520137328491927e-05  9.2596398233319729e-06  9.9454314908635986e-06  1.2541266045742039e-05  1.2498885002126224e-05  1.2043613179640514e-05  1.1288733218669117e-05  1.1850248676059694e-05  1.3007157727219287e-05  1.2656815329500700e-05  1.0123078682447823e-05  6.9357680726677118e-06  7.8665698355452446e-06  1.1102798838421837e-05  1.0547739329816953e-05  7.6623944790499797e-06  8.3036136347715967e-06  1.0990489577791464e-05  1.1178284200177691e-05  1.0492192745310476e-05  1.0032584609693425e-05  1.0400478311145564e-05  1.1870061497261766e-05  1.1923739887151627e-05  1.1167614027942132e-05  1.0118643455716083e-05  8.8601300082966018e-06  9.1544906370601893e-06  1.0006487535766011e-05  1.1718130345666862e-05  9.5205137351738968e-06  4.7189903908690585e-06  5.0676873100880200e-06  6.3892172294653831e-06  7.2267494147854321e-06  8.9816967108496613e-06  9.3458910381101300e-06  8.4801388908515076e-06  7.2136093342933707e-06  7.2974391328418566e-06  8.7392858911169974e-06  8.5551443106577199e-06  6.6965386710002350e-06  6.8351472768031913e-06  8.8168674075523657e-06  8.7353554400172714e-06  7.6507086136159438e-06  6.1341742725628537e-06  5.8925990256173221e-06  1.3771896540573936e-06  -1.8714143274985034e-06  1.4462707798969840e-06  8.6545546585058311e-07  2.0560626672481174e-06  5.2504824818054456e-06  2.8467707261027645e-06  3.2689579370425403e-06  3.0486215145904390e-06  5.0735332247256472e-06  4.3315461893153085e-06  4.8264206969985974e-06  2.1739306299915356e-06  -1.7324216711127992e-06  2.2516980266435409e-07  2.0016452385945854e-06  1.9119179892395343e-06  1.1274066139645642e-06  1.5595454176694891e-06  1.0323709039932087e-06  -8.5955269673321642e-07  -1.8808052626465759e-06  -2.6441588595442051e-06  -1.7491135455664929e-06  5.9281203893535098e-08  -4.7376520802187115e-07  -1.1380112594650897e-06  -1.4435172919098224e-06  -2.7475517216993069e-06  -2.4814870312995163e-06  -8.2474478510455476e-06  -1.0831519779927768e-05  -3.9534532705716689e-06  -2.5528921606990682e-06  -3.1813885140833161e-06  -4.0144749865743188e-06  -6.4345193027114415e-06  -7.2476927866140565e-06  -7.3774415576072851e-06  -7.2094245509940248e-06  -5.8709102230086714e-06  -5.4757164927954690e-06  -6.8746318029880124e-06  -8.3584228569728413e-06  -6.9277620422301864e-06  -1.4643532973610307e-05  -1.9097070178566443e-05  -1.0462079232066853e-05  -8.8564232654685842e-06  -9.5397516179903465e-06  -1.0067337693281275e-05  -1.2767646080770928e-05  -1.3722348138192601e-05  -1.2910479127382385e-05  -1.2070130222062179e-05  -1.2111009418910113e-05  -1.2410290716911595e-05  -1.2282766722912650e-05  -1.2295441975768846e-05  -1.2734536577379151e-05  -1.3114301262102255e-05  -1.2677815483313574e-05  -1.3107998965443844e-05  -8.6068042064219322e-06  -6.5042698025434598e-06  2.6479883752149001e-05  6.6219903775192443e-06  1.2629153692663169e-05  1.0800195495531677e-05  1.3038353916484960e-05  1.3043623521466387e-05  1.2467346502355520e-05  1.2221504725509324e-05  1.2802573519228767e-05  1.0632907899509203e-05  1.7086467749362818e-05  2.0421801198512259e-05  1.0774880699561397e-05  8.8559360263736815e-06  1.0660580754084694e-05  1.0001776284782615e-05  1.0586141403601215e-05  1.2626677629012101e-05  1.2799058766041719e-05  1.2005312830079420e-05  1.1983076111470271e-05  1.1657402994528416e-05  1.1730893876880517e-05  1.2341022610203856e-05  1.1337799420110365e-05  8.5623870784482010e-06  6.3332674208000455e-06  6.1703880957990646e-06  4.9934285249899850e-06  9.2069685717543944e-06  1.3006605478615198e-05  7.0847223171919509e-06  1.1092517037225237e-05  1.3316400506107926e-05  7.5690644566440956e-06  8.6858870385794408e-06  8.5212545962870138e-06  7.3184133770925128e-06  7.6975319420163558e-06  6.5476278696713430e-06  5.1371722421279270e-06  6.3957374475425886e-06  8.8993073190977523e-06  8.1364162966727250e-06  8.4191682209585509e-06  8.2925989655286591e-06  4.1032239984747153e-06  7.3661735407154312e-06  8.7492618962034193e-06  4.9714208056705074e-06  4.6987428810774582e-06  5.2777415897627543e-06  2.7863593357074484e-05  1.2037929052095721e-04  -1.3545130235996687e-05  -8.9520227291768289e-05  -4.7028593718568718e-05  -1.4349003000641543e-04  -1.7553636611691984e-05  9.5322858742366069e-05  -7.6912507777920932e-05  1.8239301194202130e-05  1.7979984751762118e-04  9.6591144931863532e-05  1.2638549591027372e-04  -5.6991598431089497e-05  1.6260976089035432e-07  2.3917263158048090e-04  -1.1158118590162730e-04  -3.3891067278088303e-04  2.4173977484761617e-05  2.2137487703531117e-04  1.2186977817438247e-04  -1.9534310418141925e-05  3.7105082187172114e-07  2.0001165655310819e-05  1.0522696651005914e-05  1.4537976282187479e-05  -1.2049736084601188e-05  -3.5077748492063363e-05  -4.6076033356636359e-05  7.3352173855141502e-06  -1.2463971731926871e-05  -1.0553238287118026e-05  1.5039245939437882e-05  1.7888623884776423e-05  2.8055238940533431e-05  4.4318407533101483e-06  -1.8391345650499634e-05  5.5160454273468464e-06  1.0768159090725913e-05  -2.0498653173707286e-05  -2.0111044528099518e-05  -1.9664127696040896e-05  1.7511200769338661e-06  1.3103128040944495e-05  1.3656865766188783e-05  1.9197126105476745e-05  -9.0508228702003690e-06  1.1366880202841214e-05  -2.0541942210147765e-05  -3.8425534012006529e-05  -7.2754386420218186e-05  -1.1316811601808527e-04  -9.8527657593871893e-05  -1.4696465916099846e-04  5.2304879451232060e-05  -2.1930532041083741e-05  -8.0249750746676926e-05  -6.3713312417613499e-05  3.5592309512414817e-05  6.2250629521495366e-05  3.7338964216095545e-05  2.6693969202292566e-05  -1.6515947562964592e-06  1.5085953891507004e-06  -3.8294427902792385e-06  -1.7155517792186051e-05  -1.1804741744627710e-05  1.1382715476374072e-05  -2.9350053803635828e-05  1.6421297406213301e-04  3.7509584409215542e-02  8.5806566255733255e-02  1.6797022127317149e-01  2.2857116066259608e-01  4.1770795820168927e-01  2.8997240716860490e-01  1.2422007211061605e+00  5.4151144099444650e+00  6.6667078517873932e+00  7.6196686603607500e+00  1.0556706592840969e+01  1.1444030333802200e+01  8.5033255782641408e+00  9.3029205348493367e+00  6.7980421412448599e+00  4.9141952599538890e+00  1.4012301913232439e+00  4.3487852358188506e-01  3.6677410382937964e-01  2.5871545845049881e-01  1.5377213426211150e-01  9.2111131795264603e-02  3.9732955001820058e-02  -1.8663984630656010e-04  1.9900657672345407e-04  -4.5358937910330593e-05  -3.0865836531845432e-05  3.9139443092879695e-05  -1.4667001657679082e-05  -6.2759642602814520e-05  -8.1760274131597159e-05  -1.0861032391666861e-04  -3.9456526206692487e-05  -1.3345899945796819e-04  -9.4063971179754819e-08  2.0090078211408737e-05  -1.0035986668778209e-05  -3.7166716900980132e-05  -4.3505262483174476e-05  -1.1131321216309799e-05  9.8439099920749986e-06  -1.4680672211208887e-05  -1.3357318294979640e-05  -2.1007341626871852e-05  -2.2963145866857892e-05  -1.8521910981050114e-05  4.2549439956906251e-06  4.5613133473520956e-06  -2.0236354293953734e-05  -1.7380406232761839e-05  -2.4843165499080067e-05  -7.2276859294099355e-06  2.0317949584480589e-05  3.3136310047114687e-05  3.6683415747961211e-06  -2.5304388556184979e-05  -2.2247165221386078e-05  -4.0053407545715082e-05  -5.7131095436587336e-05  -4.8872256503302948e-05  1.4150991447966704e-05  5.4703276856872898e-05  6.7714568727047874e-05  6.8917386776644080e-07  -4.6005034310938880e-05  -4.2986192579213330e-05  -5.0092604215941258e-05  -3.6673596890376826e-05  -8.7662190247269089e-06  4.9584004811471159e-05  5.3317182057471893e-05  2.9709288419158048e-07  -7.8194760447729015e-05  2.1201604427493700e-04  1.6704619252935760e-04  -2.2054073895111547e-04  -1.9573713126012283e-04  -2.5587842370492690e-04  -1.3469556938171799e-04  -8.0892108069115367e-05  -1.0028685690991809e-04  -5.6691996968642512e-05  -8.6151181387297945e-05  -1.3079679818364627e-04  -8.5694261370514787e-05  4.2004043351918301e-05  2.6323989275267670e-05  -6.8188611929767524e-05  -4.6860902340994075e-05  -7.2289980457727239e-05  -4.6396555542360183e-05  1.6219057867092898e-05  2.0721959977178737e-05  -2.2656346768999035e-05  1.3457765556572984e-05  -7.5249754095077514e-06  -4.8854269734867900e-06  -6.7029861504197056e-06  -6.5988339635981432e-06  -4.4061533953362787e-06  -3.4756072141550900e-06  -3.1154631660377053e-06  -3.1186824436055530e-06  -3.7520200444258696e-06  -3.7806829672231591e-06  -3.4044513469175748e-06  -3.0477371556875543e-06  -3.9322824519610864e-06  -5.2137876023022651e-06  -3.6732738903104384e-06  -2.3815478809920543e-06  -3.3561446501098711e-06  -4.1837758609317097e-06  -4.4100252324321649e-06  -3.4209694724858248e-06  -3.6067635765245268e-06  -2.1713645980253756e-06  -5.2517456448273426e-07  -3.2701157138560297e-06  -3.6292144826346417e-06  -2.3904047730279528e-06  1.6841650572314923e-06  9.5952248028949095e-08  -3.4145224136959015e-06  -3.6235214449138770e-06  -5.1535183602033324e-06  -4.4466508561753101e-06  -3.8859159934879903e-06  -2.3464848539348875e-06  -1.7232040025984546e-06  -1.5520683752538480e-06  -1.6620425745553643e-06  -9.2812696089363926e-07  -8.6998885823092909e-07  -2.3299178953782842e-06  -2.4656842812348674e-06  -1.9329928083298703e-06  -1.5672054813968757e-06  -1.0588052704293819e-06  -4.6153294704301390e-07  -8.2088739872689061e-07  -1.2683253186595540e-07  -1.4084210908649131e-07  -8.6317577422499053e-07  -2.7531436896259186e-07  -3.7237165948893900e-07  -1.0355487773695669e-08  2.1558413242513294e-07  -6.0858069191697744e-08  -1.1150695117053745e-10  1.7675934840113579e-07  4.5619514062726519e-07  -1.6072023594505638e-09  2.4194715113649462e-06  5.2594981956951469e-06  2.4910069062931067e-06  -1.7729121317402636e-07  3.2851242519425126e-07  1.5887328796920253e-07  2.4842895961268979e-06  3.7039965900569199e-06  8.6355048127355535e-07  9.0793362801551842e-07  3.8536671069073662e-07  2.4193237810419214e-06  4.6984084638584244e-06  1.4500835281510639e-06  3.8376775516697194e-06  9.5567870540066420e-06  6.9195206920518228e-06  2.0954549655387194e-06  1.7705377188758584e-06  2.3544882590299040e-06  2.9610554696828598e-06  3.8576560621584718e-06  3.9599816953486104e-06  4.1896795541815971e-06  5.0910944877694653e-06  5.9061408813077690e-06  6.3640616783046903e-06  7.3007609946927088e-06  9.6924340411842532e-06  1.0474934928213523e-05  7.3534923786585402e-06  5.1754211813430230e-06  5.8423581490351907e-06  6.2346540122269644e-06  5.6486429125832849e-06  4.3240966175695159e-06  4.8386888190734032e-06  8.7669462937133550e-06  1.1479539240767783e-05  1.5061505038032039e-05  1.6223633318526725e-05  2.1503197236884137e-05  2.4761736997039994e-05  2.2495711397452164e-05  1.7543180213843195e-05  6.9578842821053830e-06  1.0201028643527865e-05  1.9001854222700299e-05  2.4994766398792216e-05  2.0853061319599858e-05  7.4794129131313575e-06  1.2055275544766021e-05  2.5060769297785882e-05  2.7077020565140796e-05  2.9079108619533920e-05  2.3069292999651057e-05  8.2469107667808408e-06  1.3386222059539287e-05  3.0986071992165631e-05  2.1772724850126211e-05  1.7361915971279895e-05  2.0005715712804542e-05  1.7073014229323026e-05  2.8709382527195452e-05  3.6442895969037197e-05  2.2937716738355780e-05  1.9560132707176325e-05  2.1912248292070744e-05  1.9319929173819103e-05  3.4244187491865369e-05  4.2032325403795083e-05  3.0464907449640877e-05  1.1081701952136944e-05  1.9256213473354658e-05  4.1332685239706222e-05  2.9288396661377882e-05  1.8026258116375190e-05  3.7961640387433868e-05  3.0247878812087490e-05  2.1207871532969032e-05  4.3983135479423174e-05  3.1105079151976810e-05  2.5400555941506000e-05  2.9329477809581763e-05  3.1102648921819052e-05  3.8044474794752942e-05  2.2694281261775422e-05  1.5170774273625401e-05  3.8821491858126710e-05  4.5193565638887643e-05  2.1161623646616797e-05  1.8809810846770358e-05  2.5133090552354875e-05  3.1550795713505944e-05  2.6867761494220537e-05  1.6553815754091161e-05  2.5838050734708412e-05  2.0158717812948037e-05  1.6868847874363985e-05  2.8014110556470178e-05  2.5166052642293285e-05  2.6405370930085711e-05  2.8496115390215462e-05  3.0674091499753959e-05  3.3359746601366109e-05  3.6428703377734093e-05  3.8426122952562927e-05  3.9747409748725995e-05  4.1481056700050997e-05  4.2836713769691323e-05  4.4352448879526538e-05  4.6506127181980142e-05  4.7915971695596393e-05  4.9622629517091037e-05  5.2064513808399658e-05  5.3512812491020879e-05  5.5257056445240473e-05  5.7754217063237816e-05  5.9103843410573891e-05  6.2358487646496874e-05  6.6954675106937255e-05  6.1373690301609138e-05  4.7056304887080790e-05  4.9809940619650444e-05  7.6989484824032352e-05  1.0555611889036297e-04  1.1769043381705284e-04  1.1728741072657800e-04  1.1529348536479182e-04  1.0814768561230739e-04  8.3649160696488869e-05  1.0775331457232011e-04  1.0793454865126246e-04  5.7553641766518342e-05  7.5299530925767406e-05  9.3981956949820824e-05  8.5682313483001300e-05  8.5351506300232604e-05  8.1182674931001763e-05  7.3857355102223296e-05  7.1357679770885158e-05  7.0890763833577952e-05  6.1423760481299472e-05  3.6058599539697381e-05  8.1477101910619225e-06  7.5199192406155644e-06  1.8065447214246596e-05  8.8499346781369758e-06  3.0612491480708585e-06  5.2299908825828388e-06  -1.4230100773640581e-05  -4.4313393582050849e-05  -5.1591407596315729e-05  -3.8732864963891840e-05  -2.9396020923196462e-05  -2.6657630626783889e-05  -2.7734704701366342e-05  -3.3786062094720680e-05  -4.0837542856820709e-05  -4.5235006682317809e-05  -4.7148919758692402e-05  -4.7180602509812880e-05  -4.7269599375611281e-05  -4.7991199346712852e-05  -4.7950726586377334e-05  -4.7401808238454993e-05  -4.7260607552995094e-05  -4.7001740438133122e-05  -4.5974930180461204e-05  -4.5236235325121523e-05  -4.4914748121225794e-05  -5.0629129995248059e-05  -6.0286707792013596e-05  -5.8409954331824377e-05  -4.7561935502888392e-05  -4.2289202664965926e-05  -3.7159546953099946e-05  -3.5918788782622867e-05  -4.5716792609338210e-05  -4.4825228276908049e-05  -2.5305085841490172e-05  -1.3642073570013792e-05  -2.0535107869978092e-05  -2.9683350864503315e-05  -2.9594938648447290e-05  -2.3781940582592622e-05  -1.9652995863900808e-05  -1.8846667112226719e-05  -1.7810344980889623e-05  -1.6375808262073619e-05  -1.6914982591534357e-05  -1.7391082433908871e-05  -1.6149728213667400e-05  -1.4801683439307752e-05  -1.3769235389839486e-05  -1.3569906377386350e-05  -1.3161319124541620e-05  -9.6915289706743451e-06  -8.1163102607879321e-06  -1.3679297390704579e-05  -1.7559362180121573e-05  -1.2854298913300937e-05  -7.8351079971731452e-06  -7.8247956067710486e-06  -8.4769827514785026e-06  -7.8650159532353098e-06  -7.2341083438246859e-06  -6.9334451353983947e-06  -7.5548416981621267e-06  5.7031491548781901e-06  2.7643341868737552e-06  -1.2042474689575912e-05  -3.0010262825649388e-06  -5.8937647004934362e-06  -4.1474106004655181e-06  -5.9957361949397083e-06  1.0410993862965022e-05  5.9731240229526069e-06  -5.6279618210584627e-06  -2.5776381396539760e-06  -2.8402259116892316e-06  -2.9496290245471845e-06  -2.4168012426018279e-06  -1.7315369149948871e-06  -2.4362340377646846e-06  -3.7707118580541531e-06  -5.1112231175536946e-06  -5.5223803165006456e-06  -3.2897622626219288e-06  -1.5610771992378938e-06  7.2097490943741372e-06  3.7709421359810711e-06  -6.4988777576123881e-07  7.5057295621563727e-06  2.3858967536765365e-06  -2.0354072547465849e-06  -7.5629560234606685e-07  -8.5541610006195374e-07  -1.6866618433513218e-06  4.8737250267668413e-06  1.5716881405033811e-05  7.9327437839608991e-05  -8.0460934080709115e-05  -2.5931657900053944e-05  1.3002098834600075e-04  1.4214894189814057e-04  -4.7288952634189379e-05  -1.8577084514208013e-04  2.8504326502122183e-05  1.7644927095023153e-04  7.6927592734765354e-05  5.9907278010477297e-05  1.2364726645857442e-04  1.4402872652536654e-04  1.2021173612023817e-04  1.4264605935946080e-04  1.9203238022746593e-04  2.1646025326442798e-04  -1.0339972273487487e-04  -4.1709667219161726e-05  2.8550580437177136e-04  -9.8642692857696423e-05  -6.2857950851354872e-05  -2.1124120900572505e-05  -2.2054934484194293e-05  -1.0749836857