<?xml version="1.0"?>
<VTKFile type="UnstructuredGrid"  version="0.1"  >
<UnstructuredGrid>
<Piece  NumberOfPoints="25087" NumberOfCells="49212">
<Points>
<DataArray  type="Float64"  NumberOfComponents="3"  format="ascii">0 0 0  0.75 0 0  0.85 0 0  1.8 0 0  1.8 0.1 0  0 0.1 0  0.009939587277681541 0 0  0.01987917455536239 0 0  0.02981876183304314 0 0  0.03975834911072389 0 0  0.04969793638840794 0 0  0.05963752366609719 0 0  0.06957711094378713 0 0  0.07951669822147707 0 0  0.08945628549916627 0 0  0.09939587277684642 0 0  0.109335460054518 0 0  0.1192750473321896 0 0  0.1292146346098671 0 0  0.1391542218875571 0 0  0.149093809165247 0 0  0.1590333964429369 0 0  0.1689729837206268 0 0  0.1789125709983168 0 0  0.1888521582760067 0 0  0.1987917455536966 0 0  0.2087313328313865 0 0  0.2186709201090765 0 0  0.2286105073867664 0 0  0.2385500946644563 0 0  0.2484896819421462 0 0  0.2584292692198362 0 0  0.2683688564975261 0 0  0.278308443775216 0 0  0.288248031052906 0 0  0.2981876183305959 0 0  0.3081272056082858 0 0  0.3180667928859758 0 0  0.3280063801636657 0 0  0.3379459674413556 0 0  0.3478855547190456 0 0  0.3578251419967355 0 0  0.3677647292744254 0 0  0.3777043165521413 0 0  0.3876439038298989 0 0  0.3975834911076623 0 0  0.4075230783854257 0 0  0.4174626656631892 0 0  0.4274022529409527 0 0  0.4373418402187161 0 0  0.4472814274964795 0 0  0.457221014774243 0 0  0.4671606020520065 0 0  0.4771001893297699 0 0  0.4870397766075334 0 0  0.4969793638852968 0 0  0.5067309463239997 0 0  0.5157711254978494 0 0  0.5241202977806269 0 0  0.5318312802296193 0 0  0.5389528546926976 0 0  0.5455300745089914 0 0  0.5516045497071054 0 0  0.5572147069557104 0 0  0.562396037778403 0 0  0.5671813217260944 0 0  0.5716008310492434 0 0  0.5756825257083404 0 0  0.5794522250791264 0 0  0.582933778518776 0 0  0.5861492110966979 0 0  0.5891188647964261 0 0  0.5918615250678128 0 0  0.5943945443357254 0 0  0.5967339452616621 0 0  0.5988945293659402 0 0  0.6009061908335473 0 0  0.6028941082891001 0 0  0.6048820257446528 0 0  0.6068699432002055 0 0  0.6088578606557582 0 0  0.6108457781113108 0 0  0.6128336955668636 0 0  0.6148216130224162 0 0  0.616809530477969 0 0  0.6187974479335216 0 0  0.6207853653890744 0 0  0.6227732828446271 0 0  0.6247612003001798 0 0  0.6267491177557325 0 0  0.6287370352112852 0 0  0.6307249526668378 0 0  0.6327128701223905 0 0  0.6347007875779432 0 0  0.6366887050334959 0 0  0.6386766224890487 0 0  0.6406645399446014 0 0  0.642652457400154 0 0  0.6446403748557068 0 0  0.6466282923112595 0 0  0.6486162097668122 0 0  0.6506041272223648 0 0  0.6525920446779175 0 0  0.6545799621334703 0 0  0.656567879589023 0 0  0.6585557970445757 0 0  0.6605437145001284 0 0  0.6625316319556811 0 0  0.6645195494112337 0 0  0.6665074668667865 0 0  0.6684953843223391 0 0  0.6704833017778919 0 0  0.6724712192334446 0 0  0.6744591366889973 0 0  0.67644705414455 0 0  0.6784349716001027 0 0  0.6804228890556554 0 0  0.6824108065112081 0 0  0.6843987239667607 0 0  0.6863866414223134 0 0  0.6883745588778661 0 0  0.6903624763334189 0 0  0.6923503937889716 0 0  0.6943383112445243 0 0  0.696326228700077 0 0  0.6983141461556297 0 0  0.7003020636111823 0 0  0.7022899810667351 0 0  0.7042778985222878 0 0  0.7062658159778404 0 0  0.7082537334333932 0 0  0.7102416508889459 0 0  0.7122295683444986 0 0  0.7142174858000513 0 0  0.716205403255604 0 0  0.7181933207111566 0 0  0.7201812381667094 0 0  0.722169155622262 0 0  0.7241570730778149 0 0  0.7261449905333676 0 0  0.7281329079889202 0 0  0.7301208254444729 0 0  0.7321087429000257 0 0  0.7340966603555783 0 0  0.7360845778111311 0 0  0.7380724952666838 0 0  0.7400604127222364 0 0  0.7420483301777892 0 0  0.7440362476333419 0 0  0.7460241650888946 0 0  0.7480120825444474 0 0  0.8519928290587546 0 0  0.8539856581175093 0 0  0.855978487176264 0 0  0.8579713162350187 0 0  0.8599641452937733 0 0  0.8619569743525279 0 0  0.8639498034112826 0 0  0.8659426324700373 0 0  0.867935461528792 0 0  0.8699282905875466 0 0  0.8719211196463013 0 0  0.873913948705056 0 0  0.8759067777638107 0 0  0.8778996068225653 0 0  0.8798924358813199 0 0  0.8818852649400746 0 0  0.8838780939988293 0 0  0.885870923057584 0 0  0.8878637521163386 0 0  0.8898565811750933 0 0  0.8918494102338479 0 0  0.8938422392926026 0 0  0.8958350683513573 0 0  0.8978278974101119 0 0  0.8998207264688666 0 0  0.9018135555276212 0 0  0.903806384586376 0 0  0.9057992136451306 0 0  0.9077920427038852 0 0  0.9097848717626399 0 0  0.9117777008213945 0 0  0.9137705298801493 0 0  0.9157633589389039 0 0  0.9177561879976586 0 0  0.9197490170564132 0 0  0.921741846115168 0 0  0.9237346751739226 0 0  0.9257275042326772 0 0  0.9277203332914319 0 0  0.9297131623501866 0 0  0.9317059914089413 0 0  0.9336988204676959 0 0  0.9356916495264506 0 0  0.9376844785852052 0 0  0.93967730764396 0 0  0.9416701367027146 0 0  0.9436629657614692 0 0  0.9456557948202239 0 0  0.9476486238789785 0 0  0.9496414529377333 0 0  0.9516342819964879 0 0  0.9536271110552426 0 0  0.9556199401139972 0 0  0.957612769172752 0 0  0.9596055982315066 0 0  0.9615984272902612 0 0  0.9635912563490159 0 0  0.9655840854077706 0 0  0.9675769144665253 0 0  0.9695697435252775 0 0  0.9715625725840263 0 0  0.9735554016427752 0 0  0.9755482307015241 0 0  0.9775410597602689 0 0  0.9795338888190119 0 0  0.9815267178777549 0 0  0.9835195469364979 0 0  0.9855123759952465 0 0  0.9875052050539954 0 0  0.9894980341127442 0 0  0.9914908631714945 0 0  0.9934836922302491 0 0  0.9954765212890038 0 0  0.9974693503477584 0 0  0.9994621794065132 0 0  1.001455008465268 0 0  1.003447837524022 0 0  1.005440666582777 0 0  1.007433495641532 0 0  1.009426324700286 0 0  1.011419153759041 0 0  1.013411982817796 0 0  1.01540481187655 0 0  1.017397640935305 0 0  1.01939046999406 0 0  1.021383299052814 0 0  1.023376128111569 0 0  1.025368957170324 0 0  1.027361786229078 0 0  1.029354615287833 0 0  1.031347444346588 0 0  1.033340273405342 0 0  1.035333102464097 0 0  1.037325931522852 0 0  1.039318760581606 0 0  1.041311589640361 0 0  1.043304418699116 0 0  1.04529724775787 0 0  1.047290076816625 0 0  1.04928290587538 0 0  1.051275734934134 0 0  1.053268563992889 0 0  1.055261393051644 0 0  1.057254222110398 0 0  1.059247051169153 0 0  1.061239880227908 0 0  1.063232709286662 0 0  1.065225538345417 0 0  1.067218367404172 0 0  1.069211196462926 0 0  1.071204025521681 0 0  1.073196854580436 0 0  1.07518968363919 0 0  1.077182512697945 0 0  1.0791753417567 0 0  1.081168170815454 0 0  1.083160999874209 0 0  1.085153828932964 0 0  1.087146657991718 0 0  1.089139487050473 0 0  1.091132316109228 0 0  1.093125145167982 0 0  1.095117974226737 0 0  1.097110803285491 0 0  1.099103632344246 0 0  1.101096461403001 0 0  1.103089290461756 0 0  1.10508211952051 0 0  1.107074948579265 0 0  1.10906777763802 0 0  1.111060606696774 0 0  1.113053435755529 0 0  1.115046264814284 0 0  1.117039093873038 0 0  1.119031922931793 0 0  1.121024751990547 0 0  1.123017581049302 0 0  1.125010410108057 0 0  1.127003239166811 0 0  1.128996068225566 0 0  1.130988897284321 0 0  1.132981726343075 0 0  1.13497455540183 0 0  1.136967384460585 0 0  1.13896021351934 0 0  1.140953042578094 0 0  1.142945871636849 0 0  1.144938700695604 0 0  1.146931529754358 0 0  1.148924358813113 0 0  1.150917187871868 0 0  1.152910016930622 0 0  1.154902845989377 0 0  1.156895675048131 0 0  1.158888504106886 0 0  1.160881333165641 0 0  1.162874162224395 0 0  1.16486699128315 0 0  1.166859820341905 0 0  1.168852649400659 0 0  1.170845478459414 0 0  1.172838307518169 0 0  1.174831136576924 0 0  1.176823965635678 0 0  1.178816794694433 0 0  1.180809623753187 0 0  1.182802452811942 0 0  1.184795281870697 0 0  1.186788110929451 0 0  1.188780939988206 0 0  1.190773769046961 0 0  1.192766598105715 0 0  1.19475942716447 0 0  1.196752256223225 0 0  1.198745085281979 0 0  1.200748912638162 0 0  1.20288546443348 0 0  1.205199299294777 0 0  1.207705128061463 0 0  1.2104188818489 0 0  1.213357812369785 0 0  1.216540604460539 0 0  1.219987493828263 0 0  1.223720393159986 0 0  1.227763034966436 0 0  1.232141120812665 0 0  1.23688248446048 0 0  1.242017269350748 0 0  1.247578120948599 0 0  1.253600390288261 0 0  1.260122366103743 0 0  1.267185511970863 0 0  1.274834732580962 0 0  1.283118657571247 0 0  1.292089952249604 0 0  1.30179273530951 0 0  1.311756880603283 0 0  1.321721025897057 0 0  1.33168517119083 0 0  1.341649316484614 0 0  1.351613461778471 0 0  1.36157760707236 0 0  1.371541752366183 0 0  1.381505897659957 0 0  1.391470042953772 0 0  1.401434188247646 0 0  1.411398333541451 0 0  1.421362478835224 0 0  1.431326624129069 0 0  1.44129076942293 0 0  1.451254914716717 0 0  1.461219060010506 0 0  1.471183205304368 0 0  1.481147350598211 0 0  1.491111495891984 0 0  1.501075641185789 0 0  1.511039786479664 0 0  1.521003931773478 0 0  1.530968077067251 0 0  1.540932222361076 0 0  1.550896367654947 0 0  1.560860512948745 0 0  1.570824658242518 0 0  1.580788803536311 0 0  1.590752948830143 0 0  1.600717094123925 0 0  1.610681239417698 0 0  1.620645384711508 0 0  1.630609530005332 0 0  1.640573675299105 0 0  1.650537820592878 0 0  1.660501965886704 0 0  1.670466111180512 0 0  1.680430256474285 0 0  1.690394401768069 0 0  1.7003585470619 0 0  1.710322692355692 0 0  1.720286837649466 0 0  1.730250982943265 0 0  1.740215128237097 0 0  1.750179273530885 0 0  1.760143418824716 0 0  1.770107564118548 0 0  1.780071709412366 0 0  1.790035854706168 0 0  1.8 0.0001 0  1.8 0.00023 0  1.8 0.000399 0  1.8 0.0006187 0  1.8 0.0009043100000000001 0  1.8 0.001275603 0  1.8 0.0017582839 0  1.8 0.01140662711998408 0  1.8 0.02105497033995717 0  1.8 0.03070331355992841 0  1.8 0.04035165677989965 0  1.8 0.0499999999998722 0  1.8 0.05964834321989785 0  1.8 0.06929668643992376 0  1.8 0.07894502965995151 0  1.8 0.08859337287997926 0  1.8 0.0982417161 0  1.8 0.09872439700000001 0  1.8 0.09909569 0  1.8 0.09938130000000001 0  1.8 0.09960100000000001 0  1.8 0.09977000000000001 0  1.8 0.0999 0  1.790017325432064 0.1 0  1.780034650
[...]
<PointData  Scalars="Pressure"> 
<DataArray  type="Float64"  Name="Pressure"  format="ascii">4.8921774988552507e+00  4.0495552756379745e+00  -5.4405266043259404e-01  0.0000000000000000e+00  0.0000000000000000e+00  4.8921769758393578e+00  4.8762741587545637e+00  4.8603708238502161e+00  4.8444674983763800e+00  4.8285641835379742e+00  4.8126608815487062e+00  4.7967575944180050e+00  4.7808543250503543e+00  4.7649510764614575e+00  4.7490478531559699e+00  4.7331446593301782e+00  4.7172415029941623e+00  4.7013383916670728e+00  4.6854353328770078e+00  4.6695323415772840e+00  4.6536294317660269e+00  4.6377266216538686e+00  4.6218239354174004e+00  4.6059214007824538e+00  4.5900190479593830e+00  4.5741169304162010e+00  4.5582150928108280e+00  4.5423135997202406e+00  4.5264125366511383e+00  4.5105119972667058e+00  4.4946121077078498e+00  4.4787130111855795e+00  4.4628148949301192e+00  4.4469179911241161e+00  4.4310225687458260e+00  4.4151289767998838e+00  4.3992376362222751e+00  4.3833490631630667e+00  4.3674639118818579e+00  4.3515829993177366e+00  4.3357072046180605e+00  4.3198380000187209e+00  4.3039764023695239e+00  4.2881242570507618e+00  4.2722844183590594e+00  4.2564590476919868e+00  4.2406516451311660e+00  4.2248663359175103e+00  4.2091085039818887e+00  4.1933836713312074e+00  4.1777017030070773e+00  4.1620682458174088e+00  4.1464984609507329e+00  4.1310048291160992e+00  4.1156064802781662e+00  4.1003228359397728e+00  4.0854659988653452e+00  4.0718460081974115e+00  4.0594202758738005e+00  4.0480962895856312e+00  4.0377950144006212e+00  4.0284326994919226e+00  4.0199381641487930e+00  4.0122313242926095e+00  4.0052510688647374e+00  3.9989365463529873e+00  3.9932219457693456e+00  3.9880588568219122e+00  3.9833933165702353e+00  3.9791798144580581e+00  3.9753758713339522e+00  3.9719403661863946e+00  3.9688398552443513e+00  3.9660391259756360e+00  3.9635097247028375e+00  3.9612248400580903e+00  3.9591426148445650e+00  3.9571296212920060e+00  3.9551629930003869e+00  3.9532443543569018e+00  3.9513755646323707e+00  3.9495580132028119e+00  3.9477945489774195e+00  3.9460858142626791e+00  3.9444345976467989e+00  3.9428424816943570e+00  3.9413118722720371e+00  3.9398445677152245e+00  3.9384428526646231e+00  3.9371091524146706e+00  3.9358452381264288e+00  3.9346537891170943e+00  3.9335370651166550e+00  3.9324971838953071e+00  3.9315374356461414e+00  3.9306589957878262e+00  3.9298654502959529e+00  3.9291584538801039e+00  3.9285420604487942e+00  3.9280169893933294e+00  3.9275868880471529e+00  3.9272541857396974e+00  3.9270219453058166e+00  3.9268919002944860e+00  3.9268675797354575e+00  3.9269511677825388e+00  3.9271449584562177e+00  3.9274526104957088e+00  3.9278747248391448e+00  3.9284169135221054e+00  3.9290774217945978e+00  3.9298629063224704e+00  3.9307719848625631e+00  3.9318089650944832e+00  3.9329749799211369e+00  3.9342725308417328e+00  3.9357025804987540e+00  3.9372671863410966e+00  3.9389674682668709e+00  3.9408042560640841e+00  3.9427800312126435e+00  3.9448920755078261e+00  3.9471437076854321e+00  3.9495344926716562e+00  3.9520615802265615e+00  3.9547268934555602e+00  3.9575269366904173e+00  3.9604626404004355e+00  3.9635280789214726e+00  3.9667226638405393e+00  3.9700419117302541e+00  3.9734814408184738e+00  3.9770358052468380e+00  3.9806993719601751e+00  3.9844634615720342e+00  3.9883193238458170e+00  3.9922587543996260e+00  3.9962649356060931e+00  4.0003290154894060e+00  4.0044300288088550e+00  4.0085536904870605e+00  4.0126820234631690e+00  4.0168066852585023e+00  4.0209224960428172e+00  4.0250532213005368e+00  4.0292365606676190e+00  4.0335351193328073e+00  4.0380009687272107e+00  4.0425659025435197e+00  4.0468694884339893e+00  4.0498000742616487e+00  -5.4434858116388640e-01  -5.4637027481635136e-01  -5.4812150632898593e-01  -5.4941929844407078e-01  -5.5015645714091410e-01  -5.5039229668412704e-01  -5.5021241202651749e-01  -5.4968971509010600e-01  -5.4888461066490635e-01  -5.4783471532360473e-01  -5.4656897485790878e-01  -5.4509956684100302e-01  -5.4343651310922625e-01  -5.4157962702014517e-01  -5.3953296072464441e-01  -5.3729101427630166e-01  -5.3485442731365984e-01  -5.3221763856106996e-01  -5.2938029109948992e-01  -5.2633893646281305e-01  -5.2309070287836512e-01  -5.1963369206796861e-01  -5.1596585111586679e-01  -5.1208498270263703e-01  -5.0798988177807425e-01  -5.0367814019097978e-01  -4.9914903716807102e-01  -4.9440074522688632e-01  -4.8943220594121883e-01  -4.8424220700754744e-01  -4.7882943920312121e-01  -4.7319361936802379e-01  -4.6733352472795936e-01  -4.6124803979491857e-01  -4.5493777589848233e-01  -4.4840016019597007e-01  -4.4163707414058923e-01  -4.3464657378023702e-01  -4.2742973795022965e-01  -4.1998561236484699e-01  -4.1231442929727496e-01  -4.0441658760309707e-01  -3.9629249117035065e-01  -3.8794242820958524e-01  -3.7936744710699760e-01  -3.7056784276328752e-01  -3.6154509951111474e-01  -3.5229985184394563e-01  -3.4283433848076300e-01  -3.3314863771922687e-01  -3.2324643931006808e-01  -3.1312823615340840e-01  -3.0279603767662994e-01  -2.9225401529706219e-01  -2.8150269223263652e-01  -2.7054699160986556e-01  -2.5938833897367475e-01  -2.4803090575723591e-01  -2.3647845042872184e-01  -2.2473478255370005e-01  -2.1280503806735263e-01  -2.0069211667353654e-01  -1.8840337815028110e-01  -1.7594129172527748e-01  -1.6331272848963599e-01  -1.5052350329071007e-01  -1.3758070120246318e-01  -1.2448749510478613e-01  -1.1125542871224679e-01  -9.7887269952071421e-02  -8.4393137433781143e-02  -7.0779393121651352e-02  -5.7055215911869378e-02  -4.3227675734602157e-02  -2.9306182705994978e-02  -1.5299540909593507e-02  -1.2170320993401440e-03  1.2932479344247995e-02  2.7138290931715030e-02  4.1391912298448595e-02  5.5681776179754887e-02  6.9998658896750596e-02  8.4331056400398521e-02  9.8669821739990518e-02  1.1300273289557868e-01  1.2731963968290777e-01  1.4160956615910730e-01  1.5586189578982276e-01  1.7006495806112562e-01  1.8420835710117309e-01  1.9828062440239116e-01  2.1227161364145003e-01  2.2616975893367716e-01  2.3996493566566598e-01  2.5364608876499112e-01  2.6720345955849767e-01  2.8062636219316461e-01  2.9390580082000578e-01  3.0703086526108142e-01  3.1999248447776785e-01  3.3278284753567872e-01  3.4539170199501851e-01  3.5781129125755390e-01  3.7003327147967130e-01  3.8205067352921607e-01  3.9385547416992778e-01  4.0544167737758241e-01  4.1680252849823674e-01  4.2793079303186943e-01  4.3882436388031554e-01  4.4947502209571116e-01  4.5987977183903983e-01  4.7003415663473963e-01  4.7993510704873127e-01  4.8957885996934192e-01  4.9896337607710295e-01  5.0808695555827843e-01  5.1694638564918327e-01  5.2554212519059529e-01  5.3387364028688988e-01  5.4193946658501613e-01  5.4973977324096990e-01  5.5727667428467775e-01  5.6455014663143710e-01  5.7156149392889433e-01  5.7831402965134782e-01  5.8480752226169386e-01  5.9104613800957340e-01  5.9703364373577350e-01  6.0277101197607597e-01  6.0826334819063355e-01  6.1351372049802655e-01  6.1852667329803623e-01  6.2330593570375492e-01  6.2785680684352141e-01  6.3218288877757833e-01  6.3628967572801731e-01  6.4018240959516426e-01  6.4386545725569255e-01  6.4734486474840336e-01  6.5062528476311798e-01  6.5371326687415332e-01  6.5661291260890553e-01  6.5933088186271283e-01  6.6187211926506107e-01  6.6424200212024631e-01  6.6644733701554071e-01  6.6849168388197244e-01  6.7038327770322237e-01  6.7212474079364992e-01  6.7372364333466117e-01  6.7518423729003951e-01  6.7651226615953530e-01  6.7771301909373560e-01  6.7879127054362698e-01  6.7975221214229742e-01  6.8060117091817973e-01  6.8134194061135511e-01  6.8198035091931608e-01  6.8252023952726237e-01  6.8296626600648813e-01  6.8332295115361985e-01  6.8359399783279806e-01  6.8378389703434517e-01  6.8389656576883717e-01  6.8393553762327530e-01  6.8390432915094623e-01  6.8380659039059699e-01  6.8364604945117757e-01  6.8342543866048799e-01  6.8314788042472918e-01  6.8281676775907973e-01  6.8243441453319287e-01  6.8200388885564689e-01  6.8152748471346714e-01  6.8100525400465695e-01  6.8040290629802080e-01  6.7970051057056768e-01  6.7888521325982287e-01  6.7794271530643491e-01  6.7685552319479780e-01  6.7560710887072717e-01  6.7418137238647391e-01  6.7255428316665178e-01  6.7070577616603044e-01  6.6861440381812509e-01  6.6625195725095798e-01  6.6359182759083901e-01  6.6060602260017176e-01  6.5725180265789873e-01  6.5350233023684967e-01  6.4931008165314685e-01  6.4460689194789911e-01  6.3934655342429669e-01  6.3344296975407222e-01  6.2682461790179356e-01  6.1975515680602045e-01  6.1238910626999121e-01  6.0475038552349603e-01  5.9678710687004732e-01  5.8850642776909190e-01  5.7991155578720588e-01  5.7098171691845445e-01  5.6173342258315817e-01  5.5215087294445298e-01  5.4226443735870211e-01  5.3204138232524845e-01  5.2153317393311749e-01  5.1071697436299934e-01  4.9961339346068262e-01  4.8823585072087450e-01  4.7658850362826338e-01  4.6468618206298989e-01  4.5255264878806528e-01  4.4018627591302467e-01  4.2760349149019916e-01  4.1481939904485526e-01  4.0184031189027530e-01  3.8868899873664309e-01  3.7536608874298333e-01  3.6188474614402216e-01  3.4825573924051234e-01  3.3448727389603872e-01  3.2058263069185911e-01  3.0656624368962337e-01  2.9243513256460119e-01  2.7819474819742729e-01  2.6385748844088225e-01  2.4942168815058338e-01  2.3490268671978701e-01  2.2030364956195705e-01  2.0562771948103967e-01  1.9087691335560461e-01  1.7605968854202936e-01  1.6117958153366596e-01  1.4623807399609440e-01  1.3124073062957689e-01  1.1618898732260802e-01  1.0108544771610523e-01  8.5928099946945252e-02  7.0716908866539738e-02  5.5432891436219753e-02  4.0115925933742795e-02  2.4221533964599053e-02  1.1763002607649838e-02  0.0000000000000000e+00  0.0000000000000000e+00  0.0000000000000000e+00  0.0000000000000000e+00  0.0000000000000000e+00  0.0000000000000000e+00  0.0000000000000000e+00  0.0000000000000000e+00  0.0000000000000000e+00  0.0000000000000000e+00  0.0000000000000000e+00  0.0000000000000000e+00  0.0000000000000000e+00  0.0000000000000000e+00  0.0000000000000000e+00  0.0000000000000000e+00  0.0000000000000000e+00  0.0000000000000000e+00  0.0000000000000000e+00  0.0000000000000000e+00  0.0000000000000000e+00  0.0000000000000000e+00  0.0000000000000000e+00  1.0838914899626437e-02  2.3716046679639290e-02  4.0185145536700238e-02  5.5462641152420646e-02  7.0896306561111358e-02  8.6148957225280612e-02  1.0137208507016299e-01  1.1651851303950762e-01  1.3162494029405647e-01  1.4667136956182866e-01  1.6166323795950943e-01  1.7659045931466200e-01  1.9145525029505436e-01  2.0626058779210765e-01  2.2099482866407871e-01  2.3565692932435578e-01  2.5024465462744566e-01  2.6474842849296987e-01  2.7917297876090480e-01  2.9350612517416558e-01  3.0774510493895302e-01  3.2188531567353529e-01  3.3592042015431667e-01  3.4984751490306426e-01  3.6365194003117712e-01  3.7734128153383090e-01  3.9089668487912294e-01  4.0431373312908098e-01  4.1758632617766722e-01  4.3069719080655977e-01  4.4364557799112281e-01  4.5640825261739909e-01  4.6898993039594439e-01  4.8135878913265351e-01  4.9350371842979357e-01  5.0540629045579644e-01  5.1704521282430738e-01  5.2839982956303144e-01  5.3941825832652679e-01  5.5007882980804790e-01  5.6037509141029074e-01  5.7023904150182747e-01  5.7960306202550105e-01  5.8843401869713508e-01  5.9666993589163597e-01  6.0423259199245893e-01  6.1111080530796502e-01  6.1714851528952974e-01  6.2228663850352850e-01  6.2646261656980640e-01  6.2948702711266491e-01  6.3127593667244775e-01  6.3207950316948014e-01  6.3201052984234951e-01  6.3123644010121915e-01  6.2987660407506996e-01  6.2805588589492400e-01  6.2587910778181455e-01  6.2343338973194906e-01  6.2079292635592642e-01  6.1802664589474321e-01  6.1518382912190239e-01  6.1231159809387847e-01  6.0944381826667571e-01  6.0661421991620623e-01  6.0384154589848371e-01  6.0114561910682263e-01  5.9853926419520376e-01  5.9603253706041015e-01  5.9363209721210997e-01  5.9128932516562527e-01  5.8887810711139932e-01  5.8639240956044147e-01  5.8383215867851856e-01  5.8119697978576634e-01  5.7848675123913740e-01  5.7570108233882089e-01  5.7283985226247724e-01  5.6990298263319417e-01  5.6689012079218759e-01  5.6380112531675908e-01  5.6063596181702258e-01  5.5739429385221417e-01  5.5407612444660537e-01  5.5068132770028844e-01  5.4720960461460300e-01  5.4366104200618226e-01  5.4003540173344489e-01  5.3633274364872419e-01  5.3255287544899299e-01  5.2869561279727595e-01  5.2476108111985520e-01  5.2074906715131486e-01  5.1665948868231726e-01  5.1249250667902957e-01  5.0824783881087054e-01  5.0392528564592920e-01  4.9952499410331502e-01  4.9504683770994773e-01  4.9049128387635710e-01  4.8585695349235758e-01  4.8114525362399463e-01  4.7635520898155082e-01  4.7148707788894978e-01  4.6654077022617513e-01  4.6151611795129183e-01  4.5641316956787731e-01  4.5123186101192220e-01  4.4597200958532268e-01  4.4063355737681598e-01  4.3521664026055346e-01  4.2972103964831038e-01  4.2414637898978808e-01  4.1849296656154389e-01  4.1276056778545217e-01  4.0694920725071071e-01  4.0105873141889403e-01  3.9508897291875666e-01  3.8903995838867939e-01  3.8291172819534253e-01  3.7670385364217940e-01  3.7041650143990268e-01  3.6404969700523826e-01  3.5760330687833186e-01  3.5107703959760939e-01  3.4447139591699116e-01  3.3778570337654495e-01  3.3102063061357773e-01  3.2417555827377104e-01  3.1725101204006823e-01  3.1024656020860225e-01  3.0316289947663544e-01  2.9599979332127341e-01  2.8875694962854576e-01  2.8143506844940780e-01  2.7403422294507435e-01  2.6655462299205163e-01  2.5899648006135045e-01  2.5135993488987729e-01  2.4364560817854206e-01  2.3585386851801884e-01  2.2798504249406934e-01  2.2003956894567797e-01  2.1201806718788857e-01  2.0392099571716532e-01  1.9574964432024816e-01  1.8750408827701021e-01  1.7918490884751506e-01  1.7079368058796490e-01  1.6233089022760919e-01  1.5379787603764672e-01  1.4519533229990780e-01  1.3652452515830815e-01  1.2778726871877943e-01  1.1898386762834232e-01  1.1011671229361354e-01  1.0118672192526662e-01  9.2195936307992679e-02  8.3145619999899903e-02  7.4037718645087430e-02  6.4874176104661521e-02  5.5656858246221817e-02  4.6388061719999180e-02  3.7069674614134726e-02  2.7704056117707463e-02  1.8293581886648071e-02  8.8407110881332362e-03  -6.5194376101289418e-04  -1.0182136066542408e-02  -1.9746708218791119e-02  -2.9342871979496539e-02  -3.8968523033413194e-02  -4.8619153831314259e-02  -5.8292889372296791e-02  -6.7986136904584521e-02  -7.7695387460721230e-02  -8.7418668082214004e-02  -9.7151064217995284e-02  -1.0688851256624454e-01  -1.1663046928368248e-01  -1.2637031728918457e-01  -1.3610626215283000e-01  -1.4583298802472805e-01  -1.5554830185641588e-01  -1.6524752042829940e-01  -1.7492672878460117e-01  -1.8458267520647523e-01  -1.9421082837562698e-01  -2.0380700339195731e-01  -2.1336724996700818e-01  -2.2288878878957671e-01  -2.3236489598380841e-01  -2.4179420112545585e-01  -2.5117023696818980e-01  -2.6049033463194632e-01  -2.6974922618972919e-01  -2.7894386853128444e-01  -2.8806784923210665e-01  -2.9711927522069359e-01  -3.0609156713656727e-01  -3.1498154696656039e-01  -3.2378408714500173e-01  -3.3249521368403701e-01  -3.4110953112868830e-01  -3.4962255790555263e-01  -3.5802883028660809e-01  -3.6632578607714478e-01  -3.7450501642525436e-01  -3.8256361548698792e-01  -3.9049561711806374e-01  -3.9829516843560570e-01  -4.0595555032619896e-01  -4.1347332039759238e-01  -4.2083786130979434e-01  -4.2804783848462602e-01  -4.3509048747930595e-01  -4.4196245490617880e-01  -4.4865593182718344e-01  -4.5515735846470945e-01  -4.6146446391785145e-01  -4.6756054643700440e-01  -4.7344004885951629e-01  -4.7908870994422564e-01  -4.8449585623662333e-01  -4.8964654797729840e-01  -4.9452996731859361e-01  -4.9912164221644711e-01  -5.0340991773684851e-01  -5.0737297301497986e-01  -5.1098912764963644e-01  -5.1423498994799577e-01  -5.1708334336821016e-01  -5.1950565647333236e-01  -5.2146947594354809e-01  -5.2293914228922067e-01  -5.2387616027631190e-01  -5.2423694477024396e-01  -5.2397317615993577e-01  -5.2303353668880759e-01  -5.2135982332107256e-01  -5.1888770360281411e-01  -5.1554936736297408e-01  -5.1126799424340796e-01  -5.0595972409442080e-01  -4.9953531982270016e-01  -4.9189480981517408e-01  -4.8293884299891754e-01  -4.7254344583402769e-01  -4.6060358321631245e-01  -4.4696829178121539e-01  -4.3151481469201547e-01  -4.1410465757065368e-01  -3.9456586970575402e-01  -3.7276230925396187e-01  -3.4852584758083721e-01  -3.2169498927928492e-01  -2.9211514196010252e-01  -2.5961713683241600e-01  -2.2405511625379307e-01  -1.8528158680373055e-01  -1.4316361084065887e-01  -9.7572818338374293e-02  -4.8430843500243688e-02  4.3488717485382104e-03  6.0824380199357736e-02  1.2099129191518045e-01  1.8485892841217963e-01  2.5235822040122746e-01  3.2339624271138329e-01  3.9786080328840001e-01  4.7557164463606444e-01  5.5632428394490185e-01  6.3988043227602087e-01  7.2595482044582116e-01  8.1425060631256641e-01  9.0440828407916807e-01  9.9609565711309922e-01  1.0889491511629232e+00  1.1825737279884170e+00  1.2766038887480633e+00  1.3706486011098851e+00  1.4643476326146547e+00  1.5573465967206797e+00  1.6493136084602718e+00  1.7399332933773499e+00  1.8289293506768456e+00  1.9160456738387317e+00  2.0010603190530141e+00  2.0837797996067811e+00  2.1640429430497510e+00  2.2417237726133012e+00  2.3167285593933435e+00  2.3889826851806006e+00  2.4584434195731371e+00  2.5250938592384244e+00  2.5889371963994177e+00  2.6500004994251456e+00  2.7083125446257132e+00  2.7639500402955148e+00  2.8169475260833048e+00  2.8674059248790504e+00  2.9154174812313456e+00  2.9610340166659856e+00  3.0043796839907482e+00  3.0455556273300495e+00  3.0846338452860218e+00  3.1217348652353287e+00  3.1569527392986911e+00  3.1903714290702632e+00  3.2221002498787787e+00  3.2522211636429796e+00  3.2808266708764546e+00  3.3079997414000784e+00  3.3338229603684684e+00  3.3583739415354974e+00  3.3817260614925106e+00  3.4039508767594451e+00  3.4251139725403861e+00  3.4452785691997181e+00  3.4645047968633662e+00  3.4828486976243109e+00  3.5003621526685267e+00  3.5170957711836621e+00  3.5330955514059856e+00  3.5484062487724954e+00  3.5630666436602589e+00  3.5771176163712122e+00  3.5905939235475155e+00  3.6035299204176501e+00  3.6159572450956694e+00  3.6279049912491126e+00  3.6394013882643073e+00  3.6504722276399741e+00  3.6611419582145448e+00  3.6714333737050224e+00  3.6813678232098308e+00  3.6909653819963468e+00  3.7002447462032677e+00  3.7092237628041431e+00  3.7179180231663418e+00  3.7263448311893255e+00  3.7345173541901433e+00  3.7424493859520207e+00  3.7501541832105993e+00  3.7576433957107849e+00  3.7649287730928758e+00  3.7720201951778254e+00  3.7789292290473102e+00  3.7856640606570102e+00  3.7922338615379032e+00  3.7986473366691031e+00  3.8049117547158833e+00  3.8110357547952756e+00  3.8170250046412368e+00  3.8228867941012625e+00  3.8286284429035859e+00  3.8342535271825966e+00  3.8397699286245279e+00  3.8451816967544197e+00  3.8504943184521960e+00  3.8557122301197682e+00  3.8608405719397982e+00  3.8658830703865559e+00  3.8708435429078882e+00  3.8757266337860692e+00  3.8805354292544227e+00  3.8852734578130632e+00  3.8899439952057815e+00  3.8945501391259967e+00  3.8990950357412624e+00  3.9035917427433118e+00  3.9082917114400137e+00  3.9133149578469655e+00  3.9186805047624844e+00  3.9244094828260487e+00  3.9305225413091738e+00  3.9370430196832427e+00  3.9439953457333008e+00  3.9514065056622525e+00  3.9593045121960291e+00  3.9677229871601600e+00  3.9766906807376912e+00  3.9862501741586565e+00  3.9964409363115596e+00  4.0073093061453218e+00  4.0189071035251480e+00  4.0312885252066142e+00  4.0445236737957853e+00  4.0586775962354311e+00  4.0738307347974398e+00  4.0900739478479569e+00  4.1067056390674468e+00  4.1232121378615352e+00  4.1396179346235620e+00  4.1559418069232228e+00  4.1721990957782680e+00  4.1884029148432607e+00  4.2045623380868378e+00  4.2206870207179845e+00  4.2367828286742268e+00  4.2528548896925038e+00  4.2689087946867144e+00  4.2849467505029910e+00  4.300