<?xml version="1.0"?>
<VTKFile type="UnstructuredGrid"  version="0.1"  >
<UnstructuredGrid>
<Piece  NumberOfPoints="25087" NumberOfCells="49212">
<Points>
<DataArray  type="Float64"  NumberOfComponents="3"  format="ascii">0 0 0  0.75 0 0  0.85 0 0  1.8 0 0  1.8 0.1 0  0 0.1 0  0.009939587277681541 0 0  0.01987917455536239 0 0  0.02981876183304314 0 0  0.03975834911072389 0 0  0.04969793638840794 0 0  0.05963752366609719 0 0  0.06957711094378713 0 0  0.07951669822147707 0 0  0.08945628549916627 0 0  0.09939587277684642 0 0  0.109335460054518 0 0  0.1192750473321896 0 0  0.1292146346098671 0 0  0.1391542218875571 0 0  0.149093809165247 0 0  0.1590333964429369 0 0  0.1689729837206268 0 0  0.1789125709983168 0 0  0.1888521582760067 0 0  0.1987917455536966 0 0  0.2087313328313865 0 0  0.2186709201090765 0 0  0.2286105073867664 0 0  0.2385500946644563 0 0  0.2484896819421462 0 0  0.2584292692198362 0 0  0.2683688564975261 0 0  0.278308443775216 0 0  0.288248031052906 0 0  0.2981876183305959 0 0  0.3081272056082858 0 0  0.3180667928859758 0 0  0.3280063801636657 0 0  0.3379459674413556 0 0  0.3478855547190456 0 0  0.3578251419967355 0 0  0.3677647292744254 0 0  0.3777043165521413 0 0  0.3876439038298989 0 0  0.3975834911076623 0 0  0.4075230783854257 0 0  0.4174626656631892 0 0  0.4274022529409527 0 0  0.4373418402187161 0 0  0.4472814274964795 0 0  0.457221014774243 0 0  0.4671606020520065 0 0  0.4771001893297699 0 0  0.4870397766075334 0 0  0.4969793638852968 0 0  0.5067309463239997 0 0  0.5157711254978494 0 0  0.5241202977806269 0 0  0.5318312802296193 0 0  0.5389528546926976 0 0  0.5455300745089914 0 0  0.5516045497071054 0 0  0.5572147069557104 0 0  0.562396037778403 0 0  0.5671813217260944 0 0  0.5716008310492434 0 0  0.5756825257083404 0 0  0.5794522250791264 0 0  0.582933778518776 0 0  0.5861492110966979 0 0  0.5891188647964261 0 0  0.5918615250678128 0 0  0.5943945443357254 0 0  0.5967339452616621 0 0  0.5988945293659402 0 0  0.6009061908335473 0 0  0.6028941082891001 0 0  0.6048820257446528 0 0  0.6068699432002055 0 0  0.6088578606557582 0 0  0.6108457781113108 0 0  0.6128336955668636 0 0  0.6148216130224162 0 0  0.616809530477969 0 0  0.6187974479335216 0 0  0.6207853653890744 0 0  0.6227732828446271 0 0  0.6247612003001798 0 0  0.6267491177557325 0 0  0.6287370352112852 0 0  0.6307249526668378 0 0  0.6327128701223905 0 0  0.6347007875779432 0 0  0.6366887050334959 0 0  0.6386766224890487 0 0  0.6406645399446014 0 0  0.642652457400154 0 0  0.6446403748557068 0 0  0.6466282923112595 0 0  0.6486162097668122 0 0  0.6506041272223648 0 0  0.6525920446779175 0 0  0.6545799621334703 0 0  0.656567879589023 0 0  0.6585557970445757 0 0  0.6605437145001284 0 0  0.6625316319556811 0 0  0.6645195494112337 0 0  0.6665074668667865 0 0  0.6684953843223391 0 0  0.6704833017778919 0 0  0.6724712192334446 0 0  0.6744591366889973 0 0  0.67644705414455 0 0  0.6784349716001027 0 0  0.6804228890556554 0 0  0.6824108065112081 0 0  0.6843987239667607 0 0  0.6863866414223134 0 0  0.6883745588778661 0 0  0.6903624763334189 0 0  0.6923503937889716 0 0  0.6943383112445243 0 0  0.696326228700077 0 0  0.6983141461556297 0 0  0.7003020636111823 0 0  0.7022899810667351 0 0  0.7042778985222878 0 0  0.7062658159778404 0 0  0.7082537334333932 0 0  0.7102416508889459 0 0  0.7122295683444986 0 0  0.7142174858000513 0 0  0.716205403255604 0 0  0.7181933207111566 0 0  0.7201812381667094 0 0  0.722169155622262 0 0  0.7241570730778149 0 0  0.7261449905333676 0 0  0.7281329079889202 0 0  0.7301208254444729 0 0  0.7321087429000257 0 0  0.7340966603555783 0 0  0.7360845778111311 0 0  0.7380724952666838 0 0  0.7400604127222364 0 0  0.7420483301777892 0 0  0.7440362476333419 0 0  0.7460241650888946 0 0  0.7480120825444474 0 0  0.8519928290587546 0 0  0.8539856581175093 0 0  0.855978487176264 0 0  0.8579713162350187 0 0  0.8599641452937733 0 0  0.8619569743525279 0 0  0.8639498034112826 0 0  0.8659426324700373 0 0  0.867935461528792 0 0  0.8699282905875466 0 0  0.8719211196463013 0 0  0.873913948705056 0 0  0.8759067777638107 0 0  0.8778996068225653 0 0  0.8798924358813199 0 0  0.8818852649400746 0 0  0.8838780939988293 0 0  0.885870923057584 0 0  0.8878637521163386 0 0  0.8898565811750933 0 0  0.8918494102338479 0 0  0.8938422392926026 0 0  0.8958350683513573 0 0  0.8978278974101119 0 0  0.8998207264688666 0 0  0.9018135555276212 0 0  0.903806384586376 0 0  0.9057992136451306 0 0  0.9077920427038852 0 0  0.9097848717626399 0 0  0.9117777008213945 0 0  0.9137705298801493 0 0  0.9157633589389039 0 0  0.9177561879976586 0 0  0.9197490170564132 0 0  0.921741846115168 0 0  0.9237346751739226 0 0  0.9257275042326772 0 0  0.9277203332914319 0 0  0.9297131623501866 0 0  0.9317059914089413 0 0  0.9336988204676959 0 0  0.9356916495264506 0 0  0.9376844785852052 0 0  0.93967730764396 0 0  0.9416701367027146 0 0  0.9436629657614692 0 0  0.9456557948202239 0 0  0.9476486238789785 0 0  0.9496414529377333 0 0  0.9516342819964879 0 0  0.9536271110552426 0 0  0.9556199401139972 0 0  0.957612769172752 0 0  0.9596055982315066 0 0  0.9615984272902612 0 0  0.9635912563490159 0 0  0.9655840854077706 0 0  0.9675769144665253 0 0  0.9695697435252775 0 0  0.9715625725840263 0 0  0.9735554016427752 0 0  0.9755482307015241 0 0  0.9775410597602689 0 0  0.9795338888190119 0 0  0.9815267178777549 0 0  0.9835195469364979 0 0  0.9855123759952465 0 0  0.9875052050539954 0 0  0.9894980341127442 0 0  0.9914908631714945 0 0  0.9934836922302491 0 0  0.9954765212890038 0 0  0.9974693503477584 0 0  0.9994621794065132 0 0  1.001455008465268 0 0  1.003447837524022 0 0  1.005440666582777 0 0  1.007433495641532 0 0  1.009426324700286 0 0  1.011419153759041 0 0  1.013411982817796 0 0  1.01540481187655 0 0  1.017397640935305 0 0  1.01939046999406 0 0  1.021383299052814 0 0  1.023376128111569 0 0  1.025368957170324 0 0  1.027361786229078 0 0  1.029354615287833 0 0  1.031347444346588 0 0  1.033340273405342 0 0  1.035333102464097 0 0  1.037325931522852 0 0  1.039318760581606 0 0  1.041311589640361 0 0  1.043304418699116 0 0  1.04529724775787 0 0  1.047290076816625 0 0  1.04928290587538 0 0  1.051275734934134 0 0  1.053268563992889 0 0  1.055261393051644 0 0  1.057254222110398 0 0  1.059247051169153 0 0  1.061239880227908 0 0  1.063232709286662 0 0  1.065225538345417 0 0  1.067218367404172 0 0  1.069211196462926 0 0  1.071204025521681 0 0  1.073196854580436 0 0  1.07518968363919 0 0  1.077182512697945 0 0  1.0791753417567 0 0  1.081168170815454 0 0  1.083160999874209 0 0  1.085153828932964 0 0  1.087146657991718 0 0  1.089139487050473 0 0  1.091132316109228 0 0  1.093125145167982 0 0  1.095117974226737 0 0  1.097110803285491 0 0  1.099103632344246 0 0  1.101096461403001 0 0  1.103089290461756 0 0  1.10508211952051 0 0  1.107074948579265 0 0  1.10906777763802 0 0  1.111060606696774 0 0  1.113053435755529 0 0  1.115046264814284 0 0  1.117039093873038 0 0  1.119031922931793 0 0  1.121024751990547 0 0  1.123017581049302 0 0  1.125010410108057 0 0  1.127003239166811 0 0  1.128996068225566 0 0  1.130988897284321 0 0  1.132981726343075 0 0  1.13497455540183 0 0  1.136967384460585 0 0  1.13896021351934 0 0  1.140953042578094 0 0  1.142945871636849 0 0  1.144938700695604 0 0  1.146931529754358 0 0  1.148924358813113 0 0  1.150917187871868 0 0  1.152910016930622 0 0  1.154902845989377 0 0  1.156895675048131 0 0  1.158888504106886 0 0  1.160881333165641 0 0  1.162874162224395 0 0  1.16486699128315 0 0  1.166859820341905 0 0  1.168852649400659 0 0  1.170845478459414 0 0  1.172838307518169 0 0  1.174831136576924 0 0  1.176823965635678 0 0  1.178816794694433 0 0  1.180809623753187 0 0  1.182802452811942 0 0  1.184795281870697 0 0  1.186788110929451 0 0  1.188780939988206 0 0  1.190773769046961 0 0  1.192766598105715 0 0  1.19475942716447 0 0  1.196752256223225 0 0  1.198745085281979 0 0  1.200748912638162 0 0  1.20288546443348 0 0  1.205199299294777 0 0  1.207705128061463 0 0  1.2104188818489 0 0  1.213357812369785 0 0  1.216540604460539 0 0  1.219987493828263 0 0  1.223720393159986 0 0  1.227763034966436 0 0  1.232141120812665 0 0  1.23688248446048 0 0  1.242017269350748 0 0  1.247578120948599 0 0  1.253600390288261 0 0  1.260122366103743 0 0  1.267185511970863 0 0  1.274834732580962 0 0  1.283118657571247 0 0  1.292089952249604 0 0  1.30179273530951 0 0  1.311756880603283 0 0  1.321721025897057 0 0  1.33168517119083 0 0  1.341649316484614 0 0  1.351613461778471 0 0  1.36157760707236 0 0  1.371541752366183 0 0  1.381505897659957 0 0  1.391470042953772 0 0  1.401434188247646 0 0  1.411398333541451 0 0  1.421362478835224 0 0  1.431326624129069 0 0  1.44129076942293 0 0  1.451254914716717 0 0  1.461219060010506 0 0  1.471183205304368 0 0  1.481147350598211 0 0  1.491111495891984 0 0  1.501075641185789 0 0  1.511039786479664 0 0  1.521003931773478 0 0  1.530968077067251 0 0  1.540932222361076 0 0  1.550896367654947 0 0  1.560860512948745 0 0  1.570824658242518 0 0  1.580788803536311 0 0  1.590752948830143 0 0  1.600717094123925 0 0  1.610681239417698 0 0  1.620645384711508 0 0  1.630609530005332 0 0  1.640573675299105 0 0  1.650537820592878 0 0  1.660501965886704 0 0  1.670466111180512 0 0  1.680430256474285 0 0  1.690394401768069 0 0  1.7003585470619 0 0  1.710322692355692 0 0  1.720286837649466 0 0  1.730250982943265 0 0  1.740215128237097 0 0  1.750179273530885 0 0  1.760143418824716 0 0  1.770107564118548 0 0  1.780071709412366 0 0  1.790035854706168 0 0  1.8 0.0001 0  1.8 0.00023 0  1.8 0.000399 0  1.8 0.0006187 0  1.8 0.0009043100000000001 0  1.8 0.001275603 0  1.8 0.0017582839 0  1.8 0.01140662711998408 0  1.8 0.02105497033995717 0  1.8 0.03070331355992841 0  1.8 0.04035165677989965 0  1.8 0.0499999999998722 0  1.8 0.05964834321989785 0  1.8 0.06929668643992376 0  1.8 0.07894502965995151 0  1.8 0.08859337287997926 0  1.8 0.0982417161 0  1.8 0.09872439700000001 0  1.8 0.09909569 0  1.8 0.09938130000000001 0  1.8 0.09960100000000001 0  1.8 0.09977000000000001 0  1.8 0.0999 0  1.790017325432064 0.1 0  1.780034650
[...]
<PointData  Scalars="ShearStress"> 
<DataArray  type="Float64"  Name="ShearStress"  format="ascii">1.1313708536810341e-01  -1.4787533046133175e-04  5.1692956406831172e-05  1.1885940814270167e-01  1.4516415835680821e-01  1.1313708004556880e-01  1.1313708253610232e-01  1.1313707513499005e-01  1.1313706221829846e-01  1.1313704443826264e-01  1.1313702326380982e-01  1.1313699820238010e-01  1.1313697046660662e-01  1.1313693753043767e-01  1.1313689365712598e-01  1.1313683831562908e-01  1.1313677426458843e-01  1.1313669565021629e-01  1.1313660127634720e-01  1.1313648443294225e-01  1.1313633996724663e-01  1.1313616374965334e-01  1.1313594566560055e-01  1.1313567791385569e-01  1.1313535385238541e-01  1.1313494666819231e-01  1.1313444772966191e-01  1.1313383884943227e-01  1.1313308247221987e-01  1.1313215618560581e-01  1.1313100910575791e-01  1.1312961036398816e-01  1.1312788809407595e-01  1.1312575632641451e-01  1.1312313912839968e-01  1.1311991849104111e-01  1.1311594223876870e-01  1.1311106945880366e-01  1.1310506072217381e-01  1.1309755357299613e-01  1.1308869104353353e-01  1.1307690216622793e-01  1.1306364138153555e-01  1.1304668999279799e-01  1.1302528675426228e-01  1.1299982247860094e-01  1.1296795150143035e-01  1.1292906244856440e-01  1.1288075192035028e-01  1.1282221559243898e-01  1.1274709085547431e-01  1.1265968368317854e-01  1.1254909607140569e-01  1.1241365784786277e-01  1.1224694250111109e-01  1.1204112013817863e-01  1.1179730145869429e-01  1.1151487797094822e-01  1.1120654742818044e-01  1.1087703926429873e-01  1.1051037395027515e-01  1.1013090367826546e-01  1.0972043660180286e-01  1.0930609020078966e-01  1.0887365650969839e-01  1.0842737603609053e-01  1.0798216671472761e-01  1.0752965871187285e-01  1.0707959505605731e-01  1.0663103073235929e-01  1.0618906832891582e-01  1.0575461243368124e-01  1.0532823203138006e-01  1.0491685289112473e-01  1.0451639115814344e-01  1.0412958312181703e-01  1.0375454854928501e-01  1.0336952732728003e-01  1.0296908001359002e-01  1.0255287545561999e-01  1.0212026127709527e-01  1.0167080038513571e-01  1.0120227765167668e-01  1.0071869732810527e-01  1.0021456165798065e-01  9.9690800187337641e-02  9.9146992837111328e-02  9.8582233858759277e-02  9.7995586908245919e-02  9.7387116231156701e-02  9.6755571674677299e-02  9.6100186630599965e-02  9.5420371929783449e-02  9.4715005128653482e-02  9.3983042066658293e-02  9.3225790187328697e-02  9.2438809310446388e-02  9.1624177099965926e-02  9.0777349881961705e-02  8.9905590689027121e-02  8.8999275636969924e-02  8.8061303384145723e-02  8.7090575524347971e-02  8.6085959666022019e-02  8.5046192354756883e-02  8.3972150611623622e-02  8.2860460524994003e-02  8.1710868741297543e-02  8.0524411353421782e-02  7.9294974564736345e-02  7.8033035281632510e-02  7.6722239287605631e-02  7.5378223599523661e-02  7.3986879343626064e-02  7.2554147622359413e-02  7.1076498281260309e-02  6.9555119306734900e-02  6.7988346189296167e-02  6.6375710339533600e-02  6.4717426649774645e-02  6.3011667442596064e-02  6.1260812368212202e-02  5.9460512610242704e-02  5.7614015404817934e-02  5.5720178016703245e-02  5.3777166740317781e-02  5.1788257299898492e-02  4.9747141663397637e-02  4.7667071764378559e-02  4.5535255265360057e-02  4.3358349459355093e-02  4.1135935798140739e-02  3.8869291542535142e-02  3.6559681889235661e-02  3.4209241317654064e-02  3.1818278439484628e-02  2.9385352198960643e-02  2.6922161406880460e-02  2.4414717347942878e-02  2.1875639344053878e-02  1.9289342846537466e-02  1.6655999122518743e-02  1.3947997512843811e-02  1.1176613352874658e-02  8.3037687873960195e-03  5.3908508073307873e-03  2.4894632807092995e-03  -7.5621781731393173e-05  2.0515180809146925e-03  2.8024096312018031e-03  1.1655010243242173e-03  4.1353104455918725e-04  1.7109283633593152e-04  2.1151070124180091e-03  4.7270465478954525e-03  7.6100546303221762e-03  1.0518796045923992e-02  1.3347685975852045e-02  1.6048987961433118e-02  1.8615062983831334e-02  2.1054810080612062e-02  2.3384097880697279e-02  2.5615866293582798e-02  2.7771539318531189e-02  2.9858906593974947e-02  3.1890398589609334e-02  3.3871522236752050e-02  3.5810574393234894e-02  3.7709304849099526e-02  3.9573222270596092e-02  4.1401003520022121e-02  4.3199027856479742e-02  4.4962843473747689e-02  4.6697877386693676e-02  4.8402664734059124e-02  5.0078982446649413e-02  5.1724397055370054e-02  5.3341878606822289e-02  5.4930003848987045e-02  5.6489540174139326e-02  5.8019936304323935e-02  5.9521427105760048e-02  6.0992898167489998e-02  6.2434776045435722e-02  6.3847281637273004e-02  6.5229762444687103e-02  6.6579680881610259e-02  6.7899698459815791e-02  6.9187179630964463e-02  7.0442706463542532e-02  7.1665939229475228e-02  7.2855252284066002e-02  7.4009900962189415e-02  7.5130038932480908e-02  7.6214284835218374e-02  7.7262352520752267e-02  7.8272790087645816e-02  7.9245648015397782e-02  8.0179888777959396e-02  8.1072654272041994e-02  8.1925644440853457e-02  8.2736332288762232e-02  8.3505339765369557e-02  8.4228736065654328e-02  8.4907832262636915e-02  8.5540350638502391e-02  8.6127010476668764e-02  8.6664596540934155e-02  8.7151957752721720e-02  8.7592899791366016e-02  8.7977356444140162e-02  8.8311198662591003e-02  8.8591833339940376e-02  8.8809756335267914e-02  8.8982449382286957e-02  8.9092585708570926e-02  8.9145083269583633e-02  8.9132924810919945e-02  8.9071615025195935e-02  8.8935506778764759e-02  8.8751852904909126e-02  8.8491724949223929e-02  8.8176002720011401e-02  8.7794535665746340e-02  8.7346484393312052e-02  8.6832890543679375e-02  8.6253128136198245e-02  8.5606887774553719e-02  8.4893486228531365e-02  8.4113378616870030e-02  8.3265071870350288e-02  8.2350066343664291e-02  8.1367327818822194e-02  8.0318124288491374e-02  7.9201690013450593e-02  7.8019265469537163e-02  7.6771167733947487e-02  7.5458221857230237e-02  7.4081355755528419e-02  7.2640231609247471e-02  7.1137901101612069e-02  6.9574244587488884e-02  6.7949870708068363e-02  6.6268038493148801e-02  6.4529120323874034e-02  6.2735139901132164e-02  6.0887517811716099e-02  5.8988737640851475e-02  5.7039906651521935e-02  5.5043185707576374e-02  5.3001583158979827e-02  5.0916805706310998e-02  4.8790282566914388e-02  4.6625508733369084e-02  4.4424997241042381e-02  4.2191246425376638e-02  3.9924560167553989e-02  3.7630325799499389e-02  3.5309935104179117e-02  3.2966117742070297e-02  3.0603136616113014e-02  2.8220127744796514e-02  2.5823165121929791e-02  2.3413302832227728e-02  2.0993657987201965e-02  1.8566513140291119e-02  1.6135512386372914e-02  1.3701318509385371e-02  1.1268094547623782e-02  8.8381040398068274e-03  6.4158964631606712e-03  3.9914832460274871e-03  1.5201721370309963e-03  3.0688009102366077e-04  3.3398246196876180e-03  5.5066478600542760e-03  7.8946817595014554e-03  1.0209495483741747e-02  1.2510323217779337e-02  1.4785195720425876e-02  1.7034434080082504e-02  1.9255719989874520e-02  2.1447356610313040e-02  2.3608528254975284e-02  2.5737027574145168e-02  2.7832211723466671e-02  2.9895077078905270e-02  3.1920772154360150e-02  3.3910431512093997e-02  3.5863010731264716e-02  3.7778095451736785e-02  3.9653709888892580e-02  4.1490965720391862e-02  4.3288448380553575e-02  4.5045968739310591e-02  4.6763557497207363e-02  4.8440637461007519e-02  5.0077131486058371e-02  5.1673153189516458e-02  5.3228473533137852e-02  5.4743324360043207e-02  5.6217680141762101e-02  5.7651890835876095e-02  5.9045946739925539e-02  6.0400660607602526e-02  6.1717031420646808e-02  6.2993068445091283e-02  6.4231555065539292e-02  6.5433241608615245e-02  6.6596200330649447e-02  6.7723351060854017e-02  6.8813932221541266e-02  6.9869457123915318e-02  7.0890045288422285e-02  7.1876640397987857e-02  7.2829835341278543e-02  7.3750208289992611e-02  7.4639597508299405e-02  7.5497122794972532e-02  7.6324288161011319e-02  7.7123093739048687e-02  7.7891341182963592e-02  7.8632908383352143e-02  7.9347148141449622e-02  8.0034716832872929e-02  8.0696768054577400e-02  8.1337571568590603e-02  8.1993784687536403e-02  8.2677267246520816e-02  8.3379946551099801e-02  8.4104048942952703e-02  8.4848276116815738e-02  8.5600822184047756e-02  8.6369345546944101e-02  8.7145545114704542e-02  8.7914982308436904e-02  8.8692680122603978e-02  8.9459171816034425e-02  9.0212032922241073e-02  9.0954273088468998e-02  9.1671127797424617e-02  9.2373398636969514e-02  9.3053245061249790e-02  9.3715716499229162e-02  9.4359447693748294e-02  9.5005188675996347e-02  9.5623385616282974e-02  9.6243020205720897e-02  9.6821713366829348e-02  9.7390504289713312e-02  9.7952129896809140e-02  9.8507756395561863e-02  9.9058274156939255e-02  9.9605583653613342e-02  1.0015521196603488e-01  1.0069955933533949e-01  1.0123804092439942e-01  1.0177129765059878e-01  1.0229555181155131e-01  1.0281101455573628e-01  1.0331612519630270e-01  1.0380680610985213e-01  1.0428308658608947e-01  1.0474331369980586e-01  1.0518747978054702e-01  1.0561361555151921e-01  1.0602238660487152e-01  1.0641343062539371e-01  1.0678525782784822e-01  1.0713930578195448e-01  1.0747754968888908e-01  1.0779658926223266e-01  1.0810026296145298e-01  1.0838369127688144e-01  1.0867035977671238e-01  1.0890439601248419e-01  1.0915514089727260e-01  1.0938763225133212e-01  1.0959175724203656e-01  1.0980707833708683e-01  1.0998977255115598e-01  1.1017069904348439e-01  1.1033992174793057e-01  1.1050055837283444e-01  1.1064992619640096e-01  1.1079152315285140e-01  1.1092507179002471e-01  1.1105117513657058e-01  1.1117089550579062e-01  1.1128703272761645e-01  1.1140185849210564e-01  1.1152285500313157e-01  1.1164428460330385e-01  1.1180747549917323e-01  1.1253745526552414e-01  1.0847318360737347e-01  1.2623770533188072e-01  1.1902948533712256e-01  1.3663912391844668e-01  1.0794794894656171e-01  1.1036553549431610e-01  1.0543049080123924e-01  6.8790055845164455e-02  5.0023305788759291e-02  4.6228419881125055e-02  3.1270059948125886e-02  1.9993499918566075e-02  -4.9941231817703373e-04  1.8979190084398120e-02  3.5017825763552154e-02  4.7698281172443104e-02  4.6546928649306880e-02  7.0285901063187148e-02  1.0780112477852477e-01  1.0804861339277162e-01  1.3032013298299794e-01  1.0970630611070022e-01  1.2594604570082038e-01  1.2426711244003516e-01  1.0477810747945500e-01  1.1359737055112538e-01  1.1123078778376948e-01  1.1138925909920645e-01  1.1110912770493990e-01  1.1098286234564644e-01  1.1083100510642112e-01  1.1069490997667478e-01  1.1055179285562700e-01  1.1039818320642034e-01  1.1024000505002736e-01  1.1007363191367749e-01  1.0990118625812910e-01  1.0971767270669375e-01  1.0952306471790024e-01  1.0931883692555745e-01  1.0910286888085383e-01  1.0887475283898000e-01  1.0863368169269311e-01  1.0837835338258348e-01  1.0810828443134876e-01  1.0782219775269616e-01  1.0751884391466318e-01  1.0719720822285095e-01  1.0685528049039897e-01  1.0649229688882605e-01  1.0610519409083650e-01  1.0569239605715515e-01  1.0525100664805498e-01  1.0477877337452320e-01  1.0427309133851745e-01  1.0373020946596841e-01  1.0314672455771057e-01  1.0251713739955187e-01  1.0183773333222013e-01  1.0110418670260227e-01  1.0030932524598772e-01  9.9447622396025864e-02  9.8496603193249627e-02  9.7504333856971548e-02  9.6389296202431515e-02  9.5186936550643420e-02  9.3885515791533231e-02  9.2471626661520326e-02  9.0939335022968623e-02  8.9296093241146277e-02  8.7528097461903098e-02  8.5604039620269898e-02  8.3588312325370881e-02  8.1434077402459518e-02  7.9218136065237948e-02  7.7075060680168186e-02  7.5026785638779306e-02  7.3077609709277583e-02  7.1233586339067817e-02  6.9498262196710792e-02  6.7882193867506893e-02  6.6372747648350286e-02  6.4975291473582969e-02  6.3683789740170416e-02  6.2492464820447124e-02  6.1395949001510075e-02  6.0387595100404430e-02  5.9466054648982920e-02  5.8620453713834945e-02  5.7846126494472995e-02  5.7138164465857136e-02  5.6490240015362146e-02  5.5897253482020480e-02  5.5357204457647212e-02  5.4851511546551560e-02  5.4352196564174844e-02  5.3858982872164451e-02  5.3371744984069353e-02  5.2891011303569713e-02  5.2416441499482290e-02  5.1949111868404008e-02  5.1489418543998515e-02  5.1037772565786822e-02  5.0594169888934365e-02  5.0159221884044668e-02  4.9733144455411930e-02  4.9316413446235413e-02  4.8909295447912636e-02  4.8512490000606576e-02  4.8125800980260987e-02  4.7749661340169725e-02  4.7384905635535005e-02  4.7031724507252952e-02  4.6690312814605409e-02  4.6361219076338694e-02  4.6044751221970118e-02  4.5741167475816420e-02  4.5451410917573973e-02  4.5175362293292345e-02  4.4912861645155892e-02  4.4664868817751877e-02  4.4431857922659995e-02  4.4214890241527471e-02  4.4012589588653783e-02  4.3826511201255143e-02  4.3657508334501695e-02  4.3504451431710459e-02  4.3369025461019298e-02  4.3251005670223261e-02  4.3150582944609620e-02  4.3068874130924292e-02  4.3005731588791021e-02  4.2961727127519438e-02  4.2937366365875217e-02  4.2933039821257665e-02  4.2948206005484858e-02  4.2984132934705155e-02  4.3041269276788835e-02  4.3119977497780827e-02  4.3220366950476534e-02  4.3343057645544261e-02  4.3488198196437511e-02  4.3656907407496615e-02  4.3848423193184119e-02  4.4063677495988864e-02  4.4303476342091433e-02  4.4567943221924380e-02  4.4857332425805078e-02  4.5172263352407031e-02  4.5513008933702602e-02  4.5880105515720374e-02  4.6273841907442936e-02  4.6694775639849431e-02  4.7143056158539684e-02  4.7619838805031775e-02  4.8124955848615508e-02  4.8658102472154165e-02  4.9220640257426819e-02  4.9813067608097360e-02  5.0435553111055680e-02  5.1088834644587737e-02  5.1772565398762467e-02  5.2487156154817388e-02  5.3234329258083773e-02  5.4013248047809700e-02  5.4825085818179325e-02  5.5669381151712459e-02  5.6546381352844774e-02  5.7458474443347708e-02  5.8404188260255917e-02  5.9383468496861665e-02  6.0397948350338376e-02  6.1447753593309104e-02  6.2533170671571423e-02  6.3654134898787851e-02  6.4811295213591080e-02  6.6005144218076142e-02  6.7235449226466862e-02  6.8502838991613746e-02  6.9807829775212618e-02  7.1150110425505897e-02  7.2530350480283418e-02  7.3948311564836361e-02  7.5404719597139375e-02  7.6899531339791480e-02  7.8432930362484485e-02  8.0005184801295703e-02  8.1616248682967185e-02  8.3266291626726857e-02  8.4955587635984320e-02  8.6684080147301820e-02  8.8451788743224305e-02  9.0258734695838186e-02  9.2105234841119557e-02  9.3990959928170414e-02  9.5916325103496500e-02  9.7881480669829324e-02  9.9885930816885071e-02  1.0192935131251415e-01  1.0401244975939834e-01  1.0613462041232824e-01  1.0829646139759556e-01  1.1049687814257211e-01  1.1273745741978052e-01  1.1501633146097598e-01  1.1733502354094406e-01  1.1969223461826038e-01  1.2208820994386584e-01  1.2452356843706409e-01  1.2699742029960720e-01  1.2951046311293032e-01  1.3206292677419523e-01  1.3465365055833742e-01  1.3728304291964580e-01  1.3995262093817182e-01  1.4266078732244242e-01  1.4540857799452669e-01  1.4819598509975998e-01  1.5102280120394471e-01  1.5389003921420261e-01  1.5679840888818300e-01  1.5974706121968987e-01  1.6273739037678461e-01  1.6576990755218710e-01  1.6884444708197227e-01  1.7196282639972249e-01  1.7512594211261867e-01  1.7833434910395485e-01  1.8158780712351483e-01  1.8488879978183306e-01  1.8823926533764795e-01  1.9163952382305013e-01  1.9509054088586403e-01  1.9859632079595343e-01  2.0215662679775470e-01  2.0577524949724063e-01  2.0945418848039646e-01  2.1319361028583067e-01  2.1699722450309364e-01  2.2087066454851209e-01  2.2481337751403890e-01  2.2883121608167864e-01  2.3292762317701723e-01  2.3710267434337476e-01  2.4136913963568915e-01  2.4572339788822156e-01  2.5017128426892238e-01  2.5471949047879550e-01  2.5937662861940952e-01  2.6414611471929889e-01  2.6903546277022389e-01  2.7404839473983894e-01  2.7919702840978139e-01  2.8448397135475778e-01  2.8991999756217157e-01  2.9551292031146703e-01  3.0127108917522433e-01  3.0720396099277875e-01  3.1332050191725053e-01  3.1963027338165806e-01  3.2614361138245096e-01  3.3286961575859941e-01  3.3981766698865368e-01  3.4699824403678103e-01  3.5441974293055223e-01  3.6209007157248618e-01  3.7001846065152266e-01  3.7821086157974598e-01  3.8667248186384789e-01  3.9540473714487251e-01  4.0440937377782865e-01  4.1368807965191334e-01  4.2323397630304593e-01  4.3303802098889582e-01  4.4308901716605054e-01  4.5337819473144680e-01  4.6386916514585497e-01  4.7454633853791517e-01  4.8537324388576525e-01  4.9630766736626464e-01  5.0730429598096050e-01  5.1831228596850143e-01  5.2927172582862314e-01  5.4011266950345327e-01  5.5076728793641150e-01  5.6113954290457269e-01  5.7115988810088891e-01  5.8076774655383867e-01  5.8982270380605262e-01  5.9825526762646186e-01  6.0598280267136984e-01  6.1289377517203725e-01  6.1893019001740346e-01  6.2400336973416437e-01  6.2803130802445961e-01  6.3098441938074123e-01  6.3278312224203415e-01  6.3340116969805293e-01  6.3281686417251415e-01  6.3103104495564988e-01  6.2804008713844894e-01  6.2385498186295785e-01  6.1852506095227167e-01  6.1209124013212735e-01  6.0460589315720326e-01  5.9615002882864998e-01  5.8679229688334666e-01  5.7662027115619496e-01  5.6572220661060368e-01  5.5419641858338653e-01  5.4213089732166775e-01  5.2962260896964575e-01  5.1676204984039720e-01  5.0364260616388101e-01  4.9035327342157287e-01  4.7697033364400304e-01  4.6356698682157399e-01  4.5021454212686191e-01  4.3697725747832439e-01  4.2390893193941220e-01  4.1105964298680975e-01  3.9846869020240006e-01  3.8617457349120737e-01  3.7420175532205252e-01  3.6258453168408805e-01  3.5131870274531773e-01  3.4044536716326007e-01  3.2996175815560302e-01  3.1986845166404637e-01  3.1017122702091993e-01  3.0087302085713807e-01  2.9195954037304889e-01  2.8343868636881686e-01  2.7529423506319173e-01  2.6751783942530588e-01  2.6010099575767659e-01  2.5303143500433128e-01  2.4629834201293635e-01  2.3988851695440766e-01  2.3378979064166713e-01  2.2798976497623227e-01  2.2247482446087238e-01  2.1723361950223188e-01  2.1225343058142981e-01  2.0752128746096180e-01  2.0302570872676340e-01  1.9875579034126498e-01  1.9469998226905336e-01  1.9084628751381955e-01  1.8718687098579714e-01  1.8371067335151386e-01  1.8040861175582004e-01  1.7727058448085170e-01  1.7428881646996081e-01  1.7145520544676196e-01  1.6876198999609915e-01  1.6620168783734598e-01  1.6376739684853991e-01  1.6145244411338305e-01  1.5925060245966860e-01  1.5715589787198092e-01  1.5516281555348319e-01  1.5326633895944611e-01  1.5145611796066313e-01  1.4974387469222833e-01  1.4810428316708310e-01  1.4654485162005620e-01  1.4505969998837473e-01  1.4364410832830465e-01  1.4229594901441475e-01  1.4100572227045122e-01  1.3978561008596405e-01  1.3861471277230861e-01  1.3749963643187282e-01  1.3643600335424164e-01  1.3542118608039869e-01  1.3445295503186969e-01  1.3352849117542276e-01  1.3264644196819525e-01  1.3180372299398657e-01  1.3099919209352515e-01  1.3023113123966376e-01  1.2949717673669053e-01  1.2879642362776178e-01  1.2812451112658804e-01  1.2748723594714678e-01  1.2687472555405149e-01  1.2628796643451365e-01  1.2573144555859136e-01  1.2519615065115461e-01  1.2468499023395950e-01  1.2419623729971965e-01  1.2372879969369113e-01  1.2328171512416829e-01  1.2285290296616799e-01  1.2241937029958755e-01  1.2197025926840732e-01  1.2151258924092753e-01  1.2104165442577473e-01  1.2056247228624094e-01  1.2007460917878891e-01  1.1958592229689179e-01  1.1909761576960394e-01  1.1860734105391692e-01  1.1812283993327749e-01  1.1764807298449828e-01  1.1718535360800662e-01  1.1673784407690369e-01  1.1630925867012266e-01  1.1590243432535011e-01  1.1552243764042290e-01  1.1516806129316141e-01  1.1484254093463597e-01  1.1455559677829553e-01  1.1429135112413051e-01  1.1407277096174018e-01  1.1389648756614294e-01  1.1375312916629900e-01  1.1363668749801392e-01  1.1354253361970983e-01  1.1346587722286523e-01  1.1340384988506229e-01  1.1335340473434033e-01  1.1331305456145642e-01  1.1327942971132922e-01  1.1325278419328791e-01  1.1323094280664366e-01  1.1321324263394572e-01  1.1319888523310040e-01  1.1318725161687525e-01  1.1317777774989955e-01  1.1317011839414788e-01  1.1316388594471581e-01  1.1315882140405309e-01  1.