<?xml version="1.0"?>
<VTKFile type="UnstructuredGrid"  version="0.1"  >
<UnstructuredGrid>
<Piece  NumberOfPoints="22947" NumberOfCells="45411">
<Points>
<DataArray  type="Float64"  NumberOfComponents="3"  format="ascii">0 0 0  5 0 0  5 1 0  0 1 0  1.5 0.2 0  1.3 0.6 0  1.7 0.6 0  0.09988181715350253 0 0  0.1997636343069831 0 0  0.2996454514604577 0 0  0.3995272686139624 0 0  0.4994090857674671 0 0  0.5992909029209642 0 0  0.6991727200743116 0 0  0.7977480796387948 0 0  0.8833077882008854 0 0  0.9552465290058831 0 0  1.015928428880551 0 0  1.06737033859586 0 0  1.111317272793253 0 0  1.14931422653285 0 0  1.182777857033489 0 0  1.213067364367625 0 0  1.241543873852857 0 0  1.269517245850398 0 0  1.297484154653317 0 0  1.325451063456236 0 0  1.353417972259155 0 0  1.381384881062075 0 0  1.409351789864994 0 0  1.437318698667913 0 0  1.465285607470832 0 0  1.493252516273751 0 0  1.521219425076671 0 0  1.54918633387959 0 0  1.577153242682509 0 0  1.605120151485428 0 0  1.633087060288348 0 0  1.661053969091267 0 0  1.689020877894186 0 0  1.716987786697105 0 0  1.744954695500025 0 0  1.772921604302944 0 0  1.800888513105863 0 0  1.828855421908782 0 0  1.856822330711702 0 0  1.884789239514621 0 0  1.91275614831754 0 0  1.940723057120459 0 0  1.968689965923379 0 0  1.996656874726308 0 0  2.02462378352929 0 0  2.052590692332318 0 0  2.080557601135361 0 0  2.108524509938404 0 0  2.136491418741448 0 0  2.164458327544491 0 0  2.192425236347535 0 0  2.220392145150578 0 0  2.248359053953621 0 0  2.276325962756665 0 0  2.304292871559708 0 0  2.332259780362751 0 0  2.360226689165795 0 0  2.388193597968838 0 0  2.416160506771881 0 0  2.444127415574925 0 0  2.472094324377968 0 0  2.500061233181011 0 0  2.528028141984055 0 0  2.555995050787098 0 0  2.583961959590142 0 0  2.611928868393185 0 0  2.639895777196228 0 0  2.667862685999272 0 0  2.695829594802315 0 0  2.723796503605358 0 0  2.751763412408402 0 0  2.779730321211445 0 0  2.807697230014488 0 0  2.835664138817531 0 0  2.863631047620574 0 0  2.891597956423618 0 0  2.919564865226662 0 0  2.947531774029705 0 0  2.975498682832749 0 0  3.003466037710658 0 0  3.031764566682743 0 0  3.061630572857904 0 0  3.094429607623581 0 0  3.13021238288224 0 0  3.166169837057582 0 0  3.202127291232924 0 0  3.238084745408265 0 0  3.274042199583607 0 0  3.309999653758949 0 0  3.34595710793429 0 0  3.381914562109632 0 0  3.417872016284973 0 0  3.453829470460315 0 0  3.489786924635657 0 0  3.525744378810998 0 0  3.56170183298634 0 0  3.597659287161681 0 0  3.633616741337023 0 0  3.669574195512365 0 0  3.705531649687707 0 0  3.741489103863048 0 0  3.77744655803839 0 0  3.813404012213732 0 0  3.849361466389073 0 0  3.885318920564415 0 0  3.921276374739756 0 0  3.957233828915097 0 0  3.993191283090439 0 0  4.02914873726578 0 0  4.065106191441122 0 0  4.101063645616464 0 0  4.137021099791806 0 0  4.172978553967147 0 0  4.208936008142489 0 0  4.24489346231783 0 0  4.280850916493172 0 0  4.316808370668514 0 0  4.352765824843855 0 0  4.388723279019197 0 0  4.424680733194538 0 0  4.46063818736988 0 0  4.496595641545222 0 0  4.532553095720563 0 0  4.568510549895905 0 0  4.604468004071246 0 0  4.640425458246588 0 0  4.676382912421929 0 0  4.712340366597271 0 0  4.748297820772613 0 0  4.784255274947953 0 0  4.820212729123295 0 0  4.856170183298635 0 0  4.892127637473977 0 0  4.928085091649318 0 0  4.964042545824659 0 0  5 0.0328500670419322 0  5 0.06090401573905966 0  5 0.08486207734983149 0  5 0.1054388876402908 0  5 0.1251669432582367 0  5 0.1448949988761606 0  5 0.1646230544940819 0  5 0.1843511101120033 0  5 0.2040791657299246 0  5 0.2238072213478459 0  5 0.2435352769657672 0  5 0.2632633325836884 0  5 0.2829913882016097 0  5 0.3027194438195311 0  5 0.3224474994374524 0  5 0.3421755550553737 0  5 0.3619036106732951 0  5 0.3816316662912164 0  5 0.4013597219091377 0  5 0.421087777527059 0  5 0.4408158331449803 0  5 0.4605438887629016 0  5 0.4802719443808229 0  5 0.4999999999987551 0  5 0.519728055616775 0  5 0.5394561112348057 0  5 0.5591841668528366 0  5 0.5789122224708674 0  5 0.5986402780888981 0  5 0.6183683337069288 0  5 0.6380963893249596 0  5 0.6578244449429903 0  5 0.6775525005610212 0  5 0.6972805561790519 0  5 0.7170086117970828 0  5 0.7367366674151135 0  5 0.7564647230331443 0  5 0.776192778651175 0  5 0.7959208342692058 0  5 0.8156488898872365 0  5 0.8353769455052672 0  5 0.855105001123298 0  5 0.8748330567413287 0  5 0.8945611123593595 0  5 0.9151379226498687 0  5 0.9390959842606995 0  5 0.9671499329579316 0  4.964042545824707 1 0  4.928085091649415 1 0  4.892127637474122 1 0  4.856170183298829 1 0  4.820212729123536 1 0  4.784255274948244 1 0  4.748297820772951 1 0  4.712340366597658 1 0  4.676382912422365 1 0  4.640425458247072 1 0  4.604468004071779 1 0  4.568510549896486 1 0  4.532553095721194 1 0  4.496595641545901 1 0  4.460638187370608 1 0  4.424680733195316 1 0  4.388723279020023 1 0  4.35276582484473 1 0  4.316808370669437 1 0  4.280850916494145 1 0  4.244893462318852 1 0  4.208936008143559 1 0  4.172978553968266 1 0  4.137021099792974 1 0  4.101063645617681 1 0  4.065106191442388 1 0  4.029148737267096 1 0  3.993191283091803 1 0  3.95723382891651 1 0  3.921276374741217 1 0  3.885318920565925 1 0  3.849361466390632 1 0  3.813404012215339 1 0  3.777446558040046 1 0  3.741489103864753 1 0  3.705531649689461 1 0  3.669574195514167 1 0  3.633616741338875 1 0  3.597659287163582 1 0  3.561701832988289 1 0  3.525744378812996 1 0  3.489786924637703 1 0  3.45382947046241 1 0  3.417872016287117 1 0  3.381914562111825 1 0  3.345957107936532 1 0  3.309999653761239 1 0  3.274042199585946 1 0  3.238084745410653 1 0  3.20212729123536 1 0  3.166169837060067 1 0  3.130212382884775 1 0  3.094429607626076 1 0  3.061630572860181 1 0  3.031764566684895 1 0  3.00346603771278 1 0  2.97549868283491 1 0  2.947531774031904 1 0  2.919564865228899 1 0  2.891597956425894 1 0  2.863631047622888 1 0  2.835664138819883 1 0  2.807697230016877 1 0  2.779730321213872 1 0  2.751763412410866 1 0  2.723796503607861 1 0  2.695829594804855 1 0  2.66786268600185 1 0  2.639895777198844 1 0  2.611928868395839 1 0  2.583961959592834 1 0  2.555995050789828 1 0  2.528028141986823 1 0  2.500061233183817 1 0  2.472094324380812 1 0  2.444127415577806 1 0  2.416160506774801 1 0  2.388193597971795 1 0  2.36022668916879 1 0  2.332259780365785 1 0  2.304292871562779 1 0  2.276325962759774 1 0  2.248359053956768 1 0  2.220392145153763 1 0  2.192425236350757 1 0  2.164458327547752 1 0  2.136491418744747 1 0  2.108524509941741 1 0  2.080557601138736 1 0  2.05259069233573 1 0  2.024623783532725 1 0  1.99665687472972 1 0  1.968689965926714 1 0  1.940723057123709 1 0  1.912756148320703 1 0  1.884789239517698 1 0  1.856822330714692 1 0  1.828855421911687 1 0  1.800888513108681 1 0  1.772921604305676 1 0  1.74495469550267 1 0  1.716987786699665 1 0  1.68902087789666 1 0  1.661053969093654 1 0  1.633087060290649 1 0  1.605120151487644 1 0  1.577153242684639 1 0  1.549186333881632 1 0  1.521219425078627 1 0  1.493252516275621 1 0  1.465285607472617 1 0  1.437318698669611 1 0  1.409351789866606 1 0  1.3813848810636 1 0  1.353417972260594 1 0  1.32545106345759 1 0  1.297484154654584 1 0  1.269517245851579 1 0  1.241543873853952 1 0  1.213067364368676 1 0  1.182777857034534 1 0  1.149314226533915 1 0  1.111317272794346 1 0  1.067370338596986 1 0  1.015928428881706 1 0  0.9552465290070451 1 0  0.8833077882020213 1 0  0.7977480796398604 1 0  0.6991727200751363 1 0  0.5992909029215436 1 0  0.4994090857679536 1 0  0.3995272686143618 1 0  0.2996454514607718 1 0  0.1997636343071827 1 0  0.09988181715359001 1 0  0 0.8999999999995836 0  0 0.7999999999999998 0  0 0.7000000000006934 0  0 0.6000000000013869 0  0 0.5000000000020587 0  0 0.4000000000016644 0  0 0.3000000000012483 0  0 0.2000000000008322 0  0 0.100000000000416 0  1.699751384242739 0.6099691771530924 0  1.699006155066563 0.6199135693842884 0  1.697766165232479 0.6298084533184788 0  1.696034497548046 0.6396292287470388 0  1.693815457209259 0.649351479681627 0  1.691114561101324 0.6589510350634165 0  1.687938524092297 0.6684040288434037 0  1.684295242284711 0.6776869594669508 0  1.680193773487681 0.6867767480162182 0  1.67564431456081 0.6956507959321996 0  1.670658176173392 0.7042870409263378 0  1.665247754668492 0.7126640118983073 0  1.659426501197733 0.720760882390984 0  1.653208888346202 0.7285575222681306 0  1.646610374031267 0.7360345479149025 0  1.639647363235856 0.7431733702239103 0  1.632337167092531 0.7499562409702357 0  1.62469795989353 0.756366296874971 0  1.616748733919558 0.7623876015223461 0  1.608509252208739 0.7680051849946904 0  1.599999999406289 0.7732050810996667 0  1.591242130860608 0.7779743620750351 0  1.582257419988525 0.7823011707500295 0  1.573068204170437 0.7861747500046861 0  1.563697329302744 0.7895854694846042 0  1.554168092871136 0.7925248496031199 0  1.544504185999879 0.7949855826169927 0  1.534729634727922 0.7969615507444667 0  1.524868740094186 0.7984478414247124 0  1.514946017836289 0.7994407595022575 0  1.504986137413824 0.7999378364234504 0  1.495013860716175 0.7999378363768156 0  1.485053980351481 0.7994407593664496 0  1.475131258156531 0.7984478412054987 0  1.465270363613604 0.7969615504520329 0  1.4554958123743 0.7949855822459098 0  1.445831905597438 0.7925248491722436 0  1.436302669250897 0.7895854689986533 0  1.426931794485273 0.786174749477091 0  1.417742578777908 0.7823011701934227 0  1.408757867959409 0.7779743614700931 0  1.399999999478033 0.7732050804555297 0  1.391490746737941 0.7680051843143844 0  1.383251265066765 0.7623876007935619 0  1.375302039213222 0.7563662961626294 0  1.367662832117841 0.7499562402733849 0  1.360352636037667 0.7431733695153243 0  1.353389625336735 0.736034547233771 0  1.346791111115898 0.7285575216270866 0  1.340573498342716 0.7207608817842938 0  1.33475224496031 0.7126640113538593 0  1.329341823531611 0.7042870404435957 0  1.324355685207748 0.6956507955072012 0  1.319806226317615 0.6867767476119111 0  1.315704757542792 0.6
[...]
<PointData  Scalars="Pressure"> 
<DataArray  type="Float64"  Name="Pressure"  format="ascii">9.6805032623933396e-01  0.0000000000000000e+00  0.0000000000000000e+00  9.6181198438952276e-01  -5.5240866089630702e-01  9.9577825460134139e-01  -4.5708302098268633e-01  9.1820860274677774e-01  9.1485912119942903e-01  9.0085680037785631e-01  8.9821248200381376e-01  8.9312056079562552e-01  8.9004010814971568e-01  8.8646458185177612e-01  8.8288639502623123e-01  8.7838526031039232e-01  8.7343792948657317e-01  8.6776704991515285e-01  8.6070998306826718e-01  8.5232360596554746e-01  8.4267628761248770e-01  8.3170316364151819e-01  8.1872862446437178e-01  8.0328384062130764e-01  7.8423155488678775e-01  7.6009558636449925e-01  7.2987611301559951e-01  6.9132404117512114e-01  6.4398856008807404e-01  5.8551915405696853e-01  5.1483985853677416e-01  4.3384739620019058e-01  3.4177323966683604e-01  2.4552560532910714e-01  1.4706368035514045e-01  5.3366787347967556e-02  -3.2930539491640924e-02  -1.0885501622449441e-01  -1.7461466955536975e-01  -2.2961485097038162e-01  -2.7539873147683525e-01  -3.1423740650528131e-01  -3.4504277674815659e-01  -3.7121189586081532e-01  -3.9092753530841950e-01  -4.0551463672224264e-01  -4.1540927892073659e-01  -4.2140924690088061e-01  -4.2181305014291698e-01  -4.1876797304249042e-01  -4.1117486528030406e-01  -4.0041929214091526e-01  -3.8643829272282698e-01  -3.7056430833024734e-01  -3.5298832558034776e-01  -3.3482575055107411e-01  -3.1656552099672702e-01  -2.9889261844121345e-01  -2.8225493434069909e-01  -2.6703622591113757e-01  -2.5324977893315803e-01  -2.4100415395723235e-01  -2.3030060943977326e-01  -2.2093648784257597e-01  -2.1269916026951868e-01  -2.0511083547378769e-01  -1.9776107833543205e-01  -1.9024973556363972e-01  -1.8265851621869564e-01  -1.7570341997286348e-01  -1.7018909569078944e-01  -1.6730474069554516e-01  -1.6697074188673722e-01  -1.6982761785961889e-01  -1.7561423806637583e-01  -1.8438900978013628e-01  -1.9599462769132264e-01  -2.1004889214311376e-01  -2.2655051972011880e-01  -2.4415606999637404e-01  -2.6228777696382699e-01  -2.7915150201608219e-01  -2.9341637062542769e-01  -3.0315804985823541e-01  -3.0783632104687203e-01  -3.0583430887211216e-01  -2.9727895715820968e-01  -2.8088669875398870e-01  -2.5740844951265868e-01  -2.2552005174238027e-01  -1.8658726019507399e-01  -1.4710449819853433e-01  -1.1077764249245058e-01  -8.0014871347937527e-02  -5.5933692893436880e-02  -3.8091187442994223e-02  -2.6671021035643484e-02  -2.0074896970414167e-02  -1.6678374218417617e-02  -1.6190524364743851e-02  -1.7459276221856789e-02  -1.9778881028961540e-02  -2.2906224373601892e-02  -2.6360761261517852e-02  -2.9931312507047458e-02  -3.3531123160480576e-02  -3.7122484260631472e-02  -4.0612990997674028e-02  -4.4116425279563047e-02  -4.7563004735746386e-02  -5.0948627745743540e-02  -5.4310836300438557e-02  -5.7474095002203136e-02  -6.0362827611566514e-02  -6.2745245256484047e-02  -6.4452729281469084e-02  -6.5267515117495650e-02  -6.4954975668189183e-02  -6.3428967483976278e-02  -6.0618810491727924e-02  -5.6540729435674661e-02  -5.1370318788681688e-02  -4.5425870107765914e-02  -3.8887965441162513e-02  -3.2244957066293739e-02  -2.5655266033803848e-02  -1.9387218956915787e-02  -1.3845388063570234e-02  -8.8767751650822898e-03  -4.7433265420061231e-03  -1.4196481436201096e-03  1.2139579910474048e-03  3.0752191996637080e-03  4.3772213764847172e-03  5.0971922696998011e-03  5.3847570496797321e-03  5.2845899208395896e-03  4.8803573107594790e-03  4.2240597247678304e-03  3.3697962825811438e-03  2.3685810518526171e-03  1.2373177951838638e-03  0.0000000000000000e+00  0.0000000000000000e+00  0.0000000000000000e+00  0.0000000000000000e+00  0.0000000000000000e+00  0.0000000000000000e+00  0.0000000000000000e+00  0.0000000000000000e+00  0.0000000000000000e+00  0.0000000000000000e+00  0.0000000000000000e+00  0.0000000000000000e+00  0.0000000000000000e+00  0.0000000000000000e+00  0.0000000000000000e+00  0.0000000000000000e+00  0.0000000000000000e+00  0.0000000000000000e+00  0.0000000000000000e+00  0.0000000000000000e+00  0.0000000000000000e+00  0.0000000000000000e+00  0.0000000000000000e+00  0.0000000000000000e+00  0.0000000000000000e+00  0.0000000000000000e+00  0.0000000000000000e+00  0.0000000000000000e+00  0.0000000000000000e+00  0.0000000000000000e+00  0.0000000000000000e+00  0.0000000000000000e+00  0.0000000000000000e+00  0.0000000000000000e+00  0.0000000000000000e+00  0.0000000000000000e+00  0.0000000000000000e+00  0.0000000000000000e+00  0.0000000000000000e+00  0.0000000000000000e+00  0.0000000000000000e+00  0.0000000000000000e+00  0.0000000000000000e+00  0.0000000000000000e+00  0.0000000000000000e+00  0.0000000000000000e+00  0.0000000000000000e+00  -5.9761877714630516e-04  -1.1877053546671531e-03  -1.7910285827702570e-03  -2.3670760352033056e-03  -2.9086030617002539e-03  -3.3952832059396341e-03  -3.7626472670526817e-03  -3.9230609859240229e-03  -3.8070289387965063e-03  -3.2946960634012245e-03  -2.2635432710290315e-03  -5.0465814321561586e-04  2.0566711063654680e-03  5.6507648181054072e-03  1.0292756546433654e-02  1.6139323677869834e-02  2.3227486148800523e-02  3.1452782241498521e-02  4.0843143128538338e-02  5.1122456210182778e-02  6.2307567749255666e-02  7.3946420216396122e-02  8.6060756708766173e-02  9.7821602153688125e-02  1.0885746790957053e-01  1.1785711032094745e-01  1.2376736581045224e-01  1.2470486098571910e-01  1.1905941294484744e-01  1.0597604948949574e-01  8.3074863142013122e-02  5.2368211341201905e-02  1.3306776064298019e-02  -3.1089843051422858e-02  -7.8666140367733561e-02  -1.2653089404174403e-01  -1.7149893432739269e-01  -2.1141341252389764e-01  -2.4402182381745413e-01  -2.6965559808076855e-01  -2.8412004237354044e-01  -2.9011415277160146e-01  -2.8795971762086053e-01  -2.7823884369519980e-01  -2.6264861856539068e-01  -2.4427974952122636e-01  -2.2330899169843063e-01  -2.0285061692658271e-01  -1.8369859694330681e-01  -1.6707656391806522e-01  -1.5356805001033336e-01  -1.4368386177447615e-01  -1.3804732510251597e-01  -1.3618538469177977e-01  -1.3771417981529635e-01  -1.4200871130543927e-01  -1.4877430964833194e-01  -1.5812745255151350e-01  -1.6983688967707977e-01  -1.8340634332490238e-01  -1.9851081191639816e-01  -2.1423830484075451e-01  -2.3006232964381612e-01  -2.4489415883888929e-01  -2.5829822832663257e-01  -2.6947544410673552e-01  -2.7813606481248410e-01  -2.8395869826969095e-01  -2.8722572439577226e-01  -2.8788321250952192e-01  -2.8655389086282534e-01  -2.8362951433770722e-01  -2.7958083366903835e-01  -2.7496743316203415e-01  -2.7028883204981186e-01  -2.6607255909226557e-01  -2.6259007089661074e-01  -2.6032998939952823e-01  -2.5945045278882983e-01  -2.6001492054380942e-01  -2.6195698367794845e-01  -2.6515471546209102e-01  -2.6969810920572007e-01  -2.7554167942528962e-01  -2.8263711463997354e-01  -2.9114247998417553e-01  -3.0091686803777884e-01  -3.1184111722995539e-01  -3.2374303799897014e-01  -3.3628314527407244e-01  -3.4909683206582942e-01  -3.6176387833641016e-01  -3.7388078271190650e-01  -3.8513454313222012e-01  -3.9559824440341657e-01  -4.0443140718568676e-01  -4.1205693663107773e-01  -4.1845029116524657e-01  -4.2264453937991819e-01  -4.2602167884850622e-01  -4.2651562146486055e-01  -4.2514571713638799e-01  -4.1936894726496365e-01  -4.0983700017024299e-01  -3.9389920453659183e-01  -3.6950067096324102e-01  -3.3392534984778127e-01  -2.8992481332585351e-01  -2.2894361358977289e-01  -1.5734519733623714e-01  -7.3166410537148008e-02  1.8997486385668522e-02  1.1555788655868636e-01  2.1206555982782799e-01  3.0506087778558988e-01  3.8985660714557302e-01  4.6547865815308104e-01  5.3111956637027147e-01  5.8834095087543825e-01  6.3606677158352720e-01  6.7764955540671290e-01  7.1557301825103770e-01  7.4790269640356266e-01  7.7770141448424501e-01  8.0143374401717482e-01  8.2265530968427980e-01  8.3890750895638511e-01  8.5258524697568627e-01  8.6426788474540006e-01  8.7209026667950784e-01  8.7973887626445135e-01  8.8733707050444666e-01  8.9187450657899547e-01  9.0770245880809663e-01  9.1143181745005475e-01  9.2959718570257333e-01  9.1214403545625156e-01  9.0795601135676240e-01  9.0622676098822308e-01  9.0634600126453857e-01  9.0798815882391493e-01  9.1155708911229949e-01  9.1672349358634486e-01  9.3568145261919433e-01  -4.9529313526519014e-01  -4.8696094078847108e-01  -4.8708215749270145e-01  -4.8394167731480264e-01  -4.7991392562173524e-01  -4.7539546206369576e-01  -4.7073270379317572e-01  -4.6619060196191919e-01  -4.6207699163093957e-01  -4.5880096423029842e-01  -4.5693279167921136e-01  -4.5698712613957609e-01  -4.5928495166083572e-01  -4.6385975691151715e-01  -4.7042642659170569e-01  -4.7876153415927047e-01  -4.8868259240813888e-01  -5.0017417489292526e-01  -5.1398131937352631e-01  -5.3026740321923616e-01  -5.4922743025866416e-01  -5.7100192841742592e-01  -5.9515334357500049e-01  -6.2134266570754182e-01  -6.4859236319613722e-01  -6.7612156601466722e-01  -7.0216545808189390e-01  -7.2513039947725699e-01  -7.4351840555487558e-01  -7.5608277628826281e-01  -7.6095778810019510e-01  -7.5754206005610580e-01  -7.4454898729904007e-01  -7.2210467838937031e-01  -6.9032367426971697e-01  -6.4913679855745288e-01  -5.9979110629242549e-01  -5.4307654900528446e-01  -4.7919829743257419e-01  -4.1050231443231361e-01  -3.3760907745299046e-01  -2.6068617703693292e-01  -1.8153154152820974e-01  -1.0220404333508981e-01  -2.0615626954607703e-02  5.9189085843121464e-02  1.3933722888042163e-01  2.1754609833981151e-01  2.9282431573000706e-01  3.6587603668238566e-01  4.3641226580761283e-01  5.0323308975411196e-01  5.6618030542765285e-01  6.2611265701080887e-01  6.8169114091271565e-01  7.3302631967817578e-01  7.8023832926847791e-01  8.2335570015135739e-01  8.6187886963977067e-01  8.9597519242058121e-01  9.2732099511617050e-01  9.4641838663729594e-01  1.0308278240101452e+00  1.0317048465152041e+00  1.0364849957742288e+00  1.0384674052240781e+00  1.0391548477505450e+00  1.0387795086031397e+00  1.0375792953414362e+00  1.0357587450896528e+00  1.0333445713013398e+00  1.0304424558100407e+00  1.0270975786038474e+00  1.0233379025991252e+00  1.0191940957266601e+00  1.0146731710119163e+00  1.0097844488972656e+00  1.0045191960260105e+00  9.9887173445802202e-01  9.9282745290765206e-01  9.8636582999123301e-01  9.7948828908852270e-01  9.7207785083621023e-01  9.6421596257675912e-01  9.5576121277945303e-01  9.4673773098909142e-01  9.3699561346270466e-01  9.2654656368992583e-01  9.1524312724323231e-01  9.0297338682431338e-01  8.8968553970091524e-01  8.7518662972298789e-01  8.5929653384750249e-01  8.4177654103588839e-01  8.2234402800109763e-01  8.0064316089649212e-01  7.7622328136275665e-01  7.4849202040143092e-01  7.1658868420908228e-01  6.7947552739136519e-01  6.3563544785669246e-01  5.8263822754132100e-01  5.1673152945028933e-01  4.3112400788038269e-01  3.1093664994723363e-01  1.7432964707932436e-01  -5.1506664318270245e-01  -4.1394059496942998e-01  -3.9622440325991115e-01  -3.8318464205778152e-01  -3.7567540622783252e-01  -3.7118849209080579e-01  -3.6842673239508039e-01  -3.6677903532247202e-01  -3.6579530373362101e-01  -3.6517565265372082e-01  -3.6472929969147855e-01  -3.6432709074437791e-01  -3.6388480291769693e-01  -3.6334453963121899e-01  -3.6265904225209294e-01  -3.6178821536897943e-01  -3.6069236619056383e-01  -3.5933713018461899e-01  -3.5768969612737639e-01  -3.5572563696022313e-01  -3.5343238235764557e-01  -3.5080610721321664e-01  -3.4786534194960533e-01  -3.4464652599964452e-01  -3.4120118590575932e-01  -3.3761430173022627e-01  -3.3398664708947579e-01  -3.3043560774495734e-01  -3.2711635113814069e-01  -3.2417128836445475e-01  -3.2178833884944480e-01  -3.2012984402901135e-01  -3.1938868249878605e-01  -3.1972711723605457e-01  -3.2131241051599618e-01  -3.2431078089319254e-01  -3.2882156193811379e-01  -3.3499136396098911e-01  -3.4287326459665440e-01  -3.5261314105523472e-01  -3.6423415862949166e-01  -3.7789877528997529e-01  -3.9463518885484283e-01  -4.0718684831697149e-01  -4.0923756967933783e-01  -3.2941392831119920e-01  -3.2713376525989118e-01  -4.7226382038631093e-01  -3.0351224382871222e-01  -2.8481526999142792e-01  -3.4639276997925300e-01  -3.5950727143134270e-01  3.1557669100349425e-04  -4.7747196926756758e-01  -4.6297824908399282e-01  -1.5352840530283024e-01  -2.5033505529694167e-01  -2.8153296347551249e-01  -1.7387531179987020e-01  -2.6084159710713445e-01  -2.2401385008999491e-01  -3.0156560266436955e-01  -3.9109069141928304e-01  1.0008751195477288e+00  1.0301818057446763e+00  1.0216267922105149e+00  9.5764884760386271e-01  8.9420715897057668e-01  5.0574502903298212e-04  -1.7892413028937768e-01  -2.2344261871591156e-01  -2.8097743231878564e-01  -1.4145682426737644e-01  -7.4451963408112441e-03  4.1189403208582373e-03  4.5234605341662370e-05  -3.4106905572920815e-01  8.0828098650576385e-01  6.4999826666845895e-01  1.8186670295016430e-01  -3.6386473864449276e-01  -3.6866918244717478e-01  -4.1023478768272265e-01  6.1473815618160723e-04  -7.1175242303067376e-02  -2.6935982542868120e-01  -2.1430258643537758e-02  -1.5655858138352646e-01  -4.9200885676921373e-02  1.2146678246853547e-01  -6.4193489301220652e-02  5.7874572675220330e-02  -3.6184510400862638e-02  -4.1668676508077096e-01  9.3685847365086261e-01  7.9759250474460286e-01  5.9778609370615998e-01  -4.5904780891236580e-01  -3.8711491215973970e-01  -1.5933224986193869e-04  8.3560400311581629e-01  -3.5396514588515253e-03  3.8390687318668646e-03  -3.5667860103951238e-01  3.2768544822096363e-01  -2.1352291618344682e-01  -2.6281923511121225e-01  -6.1098641988020792e-02  -3.5341953171995011e-02  -1.7820809840978009e-02  1.0352550597894400e-01  -2.7818752114127199e-01  -1.9038773863946973e-01  2.6923172231509699e-02  1.0367535419453076e+00  -2.5248155200765116e-04  7.1362130040309726e-04  8.7065322092710729e-01  -4.8343675924410490e-01  1.7961129219677220e-02  7.7054273539262697e-01  8.4534610035805113e-01  -4.1826423038383204e-01  -5.1645797595938780e-01  -2.1885087613411869e-01  -5.7756057446880438e-01  -6.5259381050979304e-01  -7.2356150951987841e-01  -7.4900973749779576e-01  -6.9698939131311621e-01  -5.6513206718408360e-01  7.5915293650962501e-01  -1.9662150863412639e-01  6.5724010921182341e-01  -4.2297660981914431e-01  6.6478176544491430e-01  4.9239426089263422e-01  5.0408425024183910e-03  -3.0808474591182337e-03  -1.9478633973510304e-01  -2.5802597405325500e-01  -2.9709278757266477e-01  -5.4861022229634078e-02  1.9399169225651963e-02  1.9207879004511201e-02  -3.6179398237294608e-01  -3.2193620706819187e-01  -3.3657299362121579e-01  9.3017380983438391e-01  -3.5427019532898080e-01  1.0156973376042091e+00  9.8215903745576560e-01  -2.7335035736683220e-04  1.7933907866877509e-04  6.4599599100965000e-04  3.7636611195910919e-04  8.8500912995252123e-01  -4.0029899229921390e-01  2.4788901731351484e-01  8.7747561948296826e-01  4.5948579760323621e-01  -3.1258065011696379e-01  9.0665536181503070e-01  -2.7575966497602404e-02  6.4998162848681153e-04  8.9625315890119417e-01  8.1361798367261451e-01  -4.7056099989761979e-01  -4.6767651740310462e-01  -4.5823552014637631e-01  -4.8202073710132926e-01  7.0722450755194888e-01  -3.7783152641630247e-01  1.8125872376178156e-01  8.7503368890992472e-01  4.7088685961317606e-01  8.5635344761452725e-01  -1.4755307984102664e-03  -1.3714186146197016e-01  -2.6968857223712911e-01  8.0956192471693944e-01  -3.5691581735934735e-01  -4.1069466742860333e-01  -2.0063635297023069e-01  -2.0752042000045079e-01  -1.6754799228711242e-01  -3.1550989857793821e-01  -1.7757583473612518e-01  -2.7121740727220844e-01  -2.5251071634223493e-01  -2.8666602310864397e-01  -4.0513856806117393e-01  -1.9219711728884328e-01  -2.6788386552580906e-01  -2.5910163486232446e-01  -3.6353631028322508e-01  -2.9680901094003043e-01  -3.9626149940877664e-01  1.8406620996607292e-01  -6.4829154564690614e-02  -3.2679671147634363e-02  -1.6771023108473497e-02  -2.7908272128944929e-02  -5.5321965131523966e-02  -8.1847637390385024e-05  -4.1667074008567478e-02  -1.2955195590874849e-01  -1.6578345254921877e-02  3.7787091039924179e-03  5.1852603985742228e-03  -1.5806337498777520e-01  -2.8861811389229303e-01  -1.5363364900652201e-03  7.9720523002396640e-02  -5.4820542998870826e-02  -2.3038565692027213e-01  -2.3057650996459170e-01  -3.8153280230724669e-03  3.7491468670853789e-02  1.2151341669821733e-01  9.2214103457583504e-02  8.9245145723004160e-01  9.0627417705261648e-01  -3.4202641416599278e-01  -3.2291738553710087e-01  8.6490415273684318e-01  7.5847114573801266e-01  5.3727341285018138e-01  1.0238832183886497e+00  -3.8178414540911837e-01  1.0348761038054106e+00  1.0337979082608331e+00  -4.9211551381267699e-01  -4.7526223863719075e-01  -4.1390048414052283e-01  -3.4921780837689120e-01  -3.8212224979269638e-01  -2.9227278802446421e-01  -2.1826362091777832e-01  -9.8583514144307952e-02  -8.9578984542306547e-02  2.6305104604599214e-02  2.4290959633820466e-02  1.1956131081927460e-01  -6.6098541440892014e-02  1.1036758126207330e-01  1.9118425359695201e-01  2.1116000286462389e-01  2.6656056208716594e-01  2.9341607781133189e-01  3.3578397032862711e-01  3.6507384278122440e-01  3.9706018414640976e-01  4.2649188352907025e-01  4.5049097260903070e-01  4.7897840452403190e-01  4.9704447033628119e-01  5.2396067958341852e-01  5.3762258705559329e-01  5.6270534834778640e-01  5.5233013238154072e-01  5.8864885427414582e-01  5.8150916413361819e-01  6.1495637425014160e-01  6.1995753974513212e-01  6.4373915609858090e-01  6.4113329549419285e-01  6.6725907946287155e-01  6.6674417192619284e-01  6.9020693393524424e-01  6.8996519229115139e-01  7.1065748076797408e-01  7.1234000237510120e-01  7.3062229733732353e-01  7.3348743231972380e-01  7.4973330686202722e-01  7.5354399673878170e-01  7.6791109253890188e-01  7.6407948416330029e-01  7.8064043913768710e-01  7.8511456285081560e-01  7.9636221777410332e-01  8.0133433183581759e-01  8.1123231704523180e-01  8.1658280164790531e-01  8.2525912242624100e-01  8.2006175073266796e-01  8.3300425509931064e-01  8.3846269158074782e-01  8.4522173460011452e-01  8.5086484005425977e-01  8.5673444688325984e-01  8.6250503234923337e-01  8.6755213575005463e-01  8.7341298548865565e-01  8.7772272623231296e-01  8.8362438475292571e-01  8.8726168283260087e-01  8.9317789783096113e-01  8.9619060652024174e-01  9.0210353031163637e-01  9.0446087704706590e-01  8.9879911511187860e-01  9.1042080143573878e-01  9.1222511645827531e-01  9.1817470285699776e-01  9.1961010050974956e-01  9.2542734861249509e-01  9.2640477577006319e-01  9.3213687873829409e-01  9.3279651525068030e-01  9.3837857078405973e-01  9.3837760153958816e-01  8.6193758627634076e-01  9.2710618512511911e-01  9.3791698129761003e-01  9.4405607125893487e-01  9.0813466826868972e-01  9.4371755842566740e-01  9.4975657900624422e-01  8.6854054323664165e-01  9.4951308497365916e-01  9.5545620983059554e-01  9.5527652628512538e-01  9.6111762214365981e-01  9.6091369831252338e-01  9.6647222059756077e-01  9.6590774971355287e-01  9.7135741825803290e-01  9.7044007131363597e-01  9.7577943976403947e-01  9.7463067417808802e-01  9.7976763404282119e-01  9.7822654403106657e-01  9.8105354297147640e-01  9.8490978988560129e-01  7.0984044325573981e-01  8.0685998260160186e-01  7.7679617136626367e-01  8.2793419169645621e-01  9.6671353999201759e-01  9.8622797234063397e-01  9.8997016985829522e-01  7.3727099910856220e-01  9.9128738002282468e-01  9.9491499797975602e-01  9.9324681527390535e-01  9.9807061203354175e-01  9.9605138616340638e-01  1.0007438480623376e+00  9.9836667257852196e-01  1.0029142339173771e+00  1.0001863159934676e+00  1.7869981644820421e-01  3.7181280851793441e-01  5.1383603925837207e-01  5.5068483441350224e-01  9.6979612158087036e-01  9.4893287452382957e-01  1.0052897274380241e+00  1.0073090300662408e+00  9.9620355818096307e-01  9.9222108864606495e-01  1.0096607112842464e+00  1.0115220449232514e+00  9.9707699099815983e-01  9.9274013748982648e-01  5.2942118008983741e-01  5.6310995821814180e-01  3.9979387232712843e-01  1.0138239816284553e+00  1.0155186915021728e+00  1.0128080675513615e+00  1.01660299534437