<?xml version="1.0"?>
<VTKFile type="UnstructuredGrid"  version="0.1"  >
<UnstructuredGrid>
<Piece  NumberOfPoints="22947" NumberOfCells="45411">
<Points>
<DataArray  type="Float64"  NumberOfComponents="3"  format="ascii">0 0 0  5 0 0  5 1 0  0 1 0  1.5 0.2 0  1.3 0.6 0  1.7 0.6 0  0.09988181715350253 0 0  0.1997636343069831 0 0  0.2996454514604577 0 0  0.3995272686139624 0 0  0.4994090857674671 0 0  0.5992909029209642 0 0  0.6991727200743116 0 0  0.7977480796387948 0 0  0.8833077882008854 0 0  0.9552465290058831 0 0  1.015928428880551 0 0  1.06737033859586 0 0  1.111317272793253 0 0  1.14931422653285 0 0  1.182777857033489 0 0  1.213067364367625 0 0  1.241543873852857 0 0  1.269517245850398 0 0  1.297484154653317 0 0  1.325451063456236 0 0  1.353417972259155 0 0  1.381384881062075 0 0  1.409351789864994 0 0  1.437318698667913 0 0  1.465285607470832 0 0  1.493252516273751 0 0  1.521219425076671 0 0  1.54918633387959 0 0  1.577153242682509 0 0  1.605120151485428 0 0  1.633087060288348 0 0  1.661053969091267 0 0  1.689020877894186 0 0  1.716987786697105 0 0  1.744954695500025 0 0  1.772921604302944 0 0  1.800888513105863 0 0  1.828855421908782 0 0  1.856822330711702 0 0  1.884789239514621 0 0  1.91275614831754 0 0  1.940723057120459 0 0  1.968689965923379 0 0  1.996656874726308 0 0  2.02462378352929 0 0  2.052590692332318 0 0  2.080557601135361 0 0  2.108524509938404 0 0  2.136491418741448 0 0  2.164458327544491 0 0  2.192425236347535 0 0  2.220392145150578 0 0  2.248359053953621 0 0  2.276325962756665 0 0  2.304292871559708 0 0  2.332259780362751 0 0  2.360226689165795 0 0  2.388193597968838 0 0  2.416160506771881 0 0  2.444127415574925 0 0  2.472094324377968 0 0  2.500061233181011 0 0  2.528028141984055 0 0  2.555995050787098 0 0  2.583961959590142 0 0  2.611928868393185 0 0  2.639895777196228 0 0  2.667862685999272 0 0  2.695829594802315 0 0  2.723796503605358 0 0  2.751763412408402 0 0  2.779730321211445 0 0  2.807697230014488 0 0  2.835664138817531 0 0  2.863631047620574 0 0  2.891597956423618 0 0  2.919564865226662 0 0  2.947531774029705 0 0  2.975498682832749 0 0  3.003466037710658 0 0  3.031764566682743 0 0  3.061630572857904 0 0  3.094429607623581 0 0  3.13021238288224 0 0  3.166169837057582 0 0  3.202127291232924 0 0  3.238084745408265 0 0  3.274042199583607 0 0  3.309999653758949 0 0  3.34595710793429 0 0  3.381914562109632 0 0  3.417872016284973 0 0  3.453829470460315 0 0  3.489786924635657 0 0  3.525744378810998 0 0  3.56170183298634 0 0  3.597659287161681 0 0  3.633616741337023 0 0  3.669574195512365 0 0  3.705531649687707 0 0  3.741489103863048 0 0  3.77744655803839 0 0  3.813404012213732 0 0  3.849361466389073 0 0  3.885318920564415 0 0  3.921276374739756 0 0  3.957233828915097 0 0  3.993191283090439 0 0  4.02914873726578 0 0  4.065106191441122 0 0  4.101063645616464 0 0  4.137021099791806 0 0  4.172978553967147 0 0  4.208936008142489 0 0  4.24489346231783 0 0  4.280850916493172 0 0  4.316808370668514 0 0  4.352765824843855 0 0  4.388723279019197 0 0  4.424680733194538 0 0  4.46063818736988 0 0  4.496595641545222 0 0  4.532553095720563 0 0  4.568510549895905 0 0  4.604468004071246 0 0  4.640425458246588 0 0  4.676382912421929 0 0  4.712340366597271 0 0  4.748297820772613 0 0  4.784255274947953 0 0  4.820212729123295 0 0  4.856170183298635 0 0  4.892127637473977 0 0  4.928085091649318 0 0  4.964042545824659 0 0  5 0.0328500670419322 0  5 0.06090401573905966 0  5 0.08486207734983149 0  5 0.1054388876402908 0  5 0.1251669432582367 0  5 0.1448949988761606 0  5 0.1646230544940819 0  5 0.1843511101120033 0  5 0.2040791657299246 0  5 0.2238072213478459 0  5 0.2435352769657672 0  5 0.2632633325836884 0  5 0.2829913882016097 0  5 0.3027194438195311 0  5 0.3224474994374524 0  5 0.3421755550553737 0  5 0.3619036106732951 0  5 0.3816316662912164 0  5 0.4013597219091377 0  5 0.421087777527059 0  5 0.4408158331449803 0  5 0.4605438887629016 0  5 0.4802719443808229 0  5 0.4999999999987551 0  5 0.519728055616775 0  5 0.5394561112348057 0  5 0.5591841668528366 0  5 0.5789122224708674 0  5 0.5986402780888981 0  5 0.6183683337069288 0  5 0.6380963893249596 0  5 0.6578244449429903 0  5 0.6775525005610212 0  5 0.6972805561790519 0  5 0.7170086117970828 0  5 0.7367366674151135 0  5 0.7564647230331443 0  5 0.776192778651175 0  5 0.7959208342692058 0  5 0.8156488898872365 0  5 0.8353769455052672 0  5 0.855105001123298 0  5 0.8748330567413287 0  5 0.8945611123593595 0  5 0.9151379226498687 0  5 0.9390959842606995 0  5 0.9671499329579316 0  4.964042545824707 1 0  4.928085091649415 1 0  4.892127637474122 1 0  4.856170183298829 1 0  4.820212729123536 1 0  4.784255274948244 1 0  4.748297820772951 1 0  4.712340366597658 1 0  4.676382912422365 1 0  4.640425458247072 1 0  4.604468004071779 1 0  4.568510549896486 1 0  4.532553095721194 1 0  4.496595641545901 1 0  4.460638187370608 1 0  4.424680733195316 1 0  4.388723279020023 1 0  4.35276582484473 1 0  4.316808370669437 1 0  4.280850916494145 1 0  4.244893462318852 1 0  4.208936008143559 1 0  4.172978553968266 1 0  4.137021099792974 1 0  4.101063645617681 1 0  4.065106191442388 1 0  4.029148737267096 1 0  3.993191283091803 1 0  3.95723382891651 1 0  3.921276374741217 1 0  3.885318920565925 1 0  3.849361466390632 1 0  3.813404012215339 1 0  3.777446558040046 1 0  3.741489103864753 1 0  3.705531649689461 1 0  3.669574195514167 1 0  3.633616741338875 1 0  3.597659287163582 1 0  3.561701832988289 1 0  3.525744378812996 1 0  3.489786924637703 1 0  3.45382947046241 1 0  3.417872016287117 1 0  3.381914562111825 1 0  3.345957107936532 1 0  3.309999653761239 1 0  3.274042199585946 1 0  3.238084745410653 1 0  3.20212729123536 1 0  3.166169837060067 1 0  3.130212382884775 1 0  3.094429607626076 1 0  3.061630572860181 1 0  3.031764566684895 1 0  3.00346603771278 1 0  2.97549868283491 1 0  2.947531774031904 1 0  2.919564865228899 1 0  2.891597956425894 1 0  2.863631047622888 1 0  2.835664138819883 1 0  2.807697230016877 1 0  2.779730321213872 1 0  2.751763412410866 1 0  2.723796503607861 1 0  2.695829594804855 1 0  2.66786268600185 1 0  2.639895777198844 1 0  2.611928868395839 1 0  2.583961959592834 1 0  2.555995050789828 1 0  2.528028141986823 1 0  2.500061233183817 1 0  2.472094324380812 1 0  2.444127415577806 1 0  2.416160506774801 1 0  2.388193597971795 1 0  2.36022668916879 1 0  2.332259780365785 1 0  2.304292871562779 1 0  2.276325962759774 1 0  2.248359053956768 1 0  2.220392145153763 1 0  2.192425236350757 1 0  2.164458327547752 1 0  2.136491418744747 1 0  2.108524509941741 1 0  2.080557601138736 1 0  2.05259069233573 1 0  2.024623783532725 1 0  1.99665687472972 1 0  1.968689965926714 1 0  1.940723057123709 1 0  1.912756148320703 1 0  1.884789239517698 1 0  1.856822330714692 1 0  1.828855421911687 1 0  1.800888513108681 1 0  1.772921604305676 1 0  1.74495469550267 1 0  1.716987786699665 1 0  1.68902087789666 1 0  1.661053969093654 1 0  1.633087060290649 1 0  1.605120151487644 1 0  1.577153242684639 1 0  1.549186333881632 1 0  1.521219425078627 1 0  1.493252516275621 1 0  1.465285607472617 1 0  1.437318698669611 1 0  1.409351789866606 1 0  1.3813848810636 1 0  1.353417972260594 1 0  1.32545106345759 1 0  1.297484154654584 1 0  1.269517245851579 1 0  1.241543873853952 1 0  1.213067364368676 1 0  1.182777857034534 1 0  1.149314226533915 1 0  1.111317272794346 1 0  1.067370338596986 1 0  1.015928428881706 1 0  0.9552465290070451 1 0  0.8833077882020213 1 0  0.7977480796398604 1 0  0.6991727200751363 1 0  0.5992909029215436 1 0  0.4994090857679536 1 0  0.3995272686143618 1 0  0.2996454514607718 1 0  0.1997636343071827 1 0  0.09988181715359001 1 0  0 0.8999999999995836 0  0 0.7999999999999998 0  0 0.7000000000006934 0  0 0.6000000000013869 0  0 0.5000000000020587 0  0 0.4000000000016644 0  0 0.3000000000012483 0  0 0.2000000000008322 0  0 0.100000000000416 0  1.699751384242739 0.6099691771530924 0  1.699006155066563 0.6199135693842884 0  1.697766165232479 0.6298084533184788 0  1.696034497548046 0.6396292287470388 0  1.693815457209259 0.649351479681627 0  1.691114561101324 0.6589510350634165 0  1.687938524092297 0.6684040288434037 0  1.684295242284711 0.6776869594669508 0  1.680193773487681 0.6867767480162182 0  1.67564431456081 0.6956507959321996 0  1.670658176173392 0.7042870409263378 0  1.665247754668492 0.7126640118983073 0  1.659426501197733 0.720760882390984 0  1.653208888346202 0.7285575222681306 0  1.646610374031267 0.7360345479149025 0  1.639647363235856 0.7431733702239103 0  1.632337167092531 0.7499562409702357 0  1.62469795989353 0.756366296874971 0  1.616748733919558 0.7623876015223461 0  1.608509252208739 0.7680051849946904 0  1.599999999406289 0.7732050810996667 0  1.591242130860608 0.7779743620750351 0  1.582257419988525 0.7823011707500295 0  1.573068204170437 0.7861747500046861 0  1.563697329302744 0.7895854694846042 0  1.554168092871136 0.7925248496031199 0  1.544504185999879 0.7949855826169927 0  1.534729634727922 0.7969615507444667 0  1.524868740094186 0.7984478414247124 0  1.514946017836289 0.7994407595022575 0  1.504986137413824 0.7999378364234504 0  1.495013860716175 0.7999378363768156 0  1.485053980351481 0.7994407593664496 0  1.475131258156531 0.7984478412054987 0  1.465270363613604 0.7969615504520329 0  1.4554958123743 0.7949855822459098 0  1.445831905597438 0.7925248491722436 0  1.436302669250897 0.7895854689986533 0  1.426931794485273 0.786174749477091 0  1.417742578777908 0.7823011701934227 0  1.408757867959409 0.7779743614700931 0  1.399999999478033 0.7732050804555297 0  1.391490746737941 0.7680051843143844 0  1.383251265066765 0.7623876007935619 0  1.375302039213222 0.7563662961626294 0  1.367662832117841 0.7499562402733849 0  1.360352636037667 0.7431733695153243 0  1.353389625336735 0.736034547233771 0  1.346791111115898 0.7285575216270866 0  1.340573498342716 0.7207608817842938 0  1.33475224496031 0.7126640113538593 0  1.329341823531611 0.7042870404435957 0  1.324355685207748 0.6956507955072012 0  1.319806226317615 0.6867767476119111 0  1.315704757542792 0.6
[...]
<PointData  Scalars="Pressure"> 
<DataArray  type="Float64"  Name="Pressure"  format="ascii">1.0339498089381909e+00  0.0000000000000000e+00  0.0000000000000000e+00  1.0273396933340437e+00  -4.9167320039016899e-01  1.0618305272745896e+00  -3.6033833884959987e-01  9.8411243390774450e-01  9.8078925385057980e-01  9.6684871515621829e-01  9.6430532113291845e-01  9.5937746515148337e-01  9.5652697907133921e-01  9.5327611312930560e-01  9.5009254587587011e-01  9.4605385456570235e-01  9.4159493812100059e-01  9.3637185753619112e-01  9.2976610186130815e-01  9.2180641012008768e-01  9.1255723635859975e-01  9.0193724049601753e-01  8.8929841228376494e-01  8.7417105661386352e-01  8.5542043817425983e-01  8.3157398072822619e-01  8.0160987884673207e-01  7.6327300322616765e-01  7.1608806519569679e-01  6.5768130143553882e-01  5.8696255975145251e-01  5.0584048459349640e-01  4.1350369647546853e-01  3.1697944234783643e-01  2.1821499318961801e-01  1.2431010858315501e-01  3.7954902129193988e-02  -3.7835949153835091e-02  -1.0331619351055180e-01  -1.5790984657205276e-01  -2.0327853548266364e-01  -2.4186091449964836e-01  -2.7269198133273315e-01  -2.9931642072829606e-01  -3.2006712463420689e-01  -3.3637533982260781e-01  -3.4878226206785218e-01  -3.5792674657550666e-01  -3.6233273295918428e-01  -3.6380070034051032e-01  -3.6120351839713605e-01  -3.5565270297848683e-01  -3.4683626869529316e-01  -3.3583522092119933e-01  -3.2259980001671157e-01  -3.0811787474548175e-01  -2.9277348245804019e-01  -2.7730734219832687e-01  -2.6222997436641710e-01  -2.4802819169763252e-01  -2.3502537125246445e-01  -2.2340798821036120e-01  -2.1337456829316140e-01  -2.0480777787771320e-01  -1.9767935691695657e-01  -1.9171304828014890e-01  -1.8692376449550036e-01  -1.8322819930941719e-01  -1.8080660330417050e-01  -1.7980875931596796e-01  -1.8042821222535751e-01  -1.8277124206844350e-01  -1.8664333547644027e-01  -1.9183020997203701e-01  -1.9806571133434245e-01  -2.0492938449996659e-01  -2.1189244345452193e-01  -2.1834009510899255e-01  -2.2339271732839247e-01  -2.2661560326031929e-01  -2.2701095602976507e-01  -2.2390214474926184e-01  -2.1701626792015322e-01  -2.0581753194939148e-01  -1.9066647349200691e-01  -1.7247322861362802e-01  -1.5181764392096031e-01  -1.2966364498901722e-01  -1.0659170195861976e-01  -8.2653282776438200e-02  -6.0821936685433751e-02  -4.3778870107168008e-02  -3.2756123995415200e-02  -2.7171323050491480e-02  -2.6981703427746782e-02  -3.0913608835192941e-02  -3.9321231308210011e-02  -5.1471910249715751e-02  -6.6472440865915791e-02  -8.3880174984333353e-02  -1.0323689514699874e-01  -1.2298215512309106e-01  -1.4182669173759568e-01  -1.5856781704235384e-01  -1.7149736629981158e-01  -1.7802684212320422e-01  -1.7902031346131020e-01  -1.7291695887544303e-01  -1.5927979742040924e-01  -1.4051329924559472e-01  -1.1634062331459237e-01  -8.9186879707579464e-02  -6.1059625545550847e-02  -3.3553837608879707e-02  -8.2876928007724181e-03  1.3765039541272887e-02  3.2189078444268826e-02  4.6599777019748177e-02  5.7570259948421333e-02  6.5278184387634067e-02  7.0273687428483472e-02  7.3181599339286932e-02  7.4353445640853361e-02  7.4156039567649809e-02  7.2879945160984741e-02  7.0613036943075774e-02  6.7707505386551001e-02  6.4099805493338768e-02  5.9910687427356293e-02  5.5272212364765629e-02  5.0119889789368974e-02  4.4634743593395844e-02  3.8839806615132477e-02  3.2940334755710746e-02  2.7050361294959299e-02  2.1443165630753089e-02  1.6374171315441676e-02  1.2043391151077677e-02  8.7425268001961858e-03  6.3985691635182213e-03  4.9002558909747220e-03  3.9691798287074748e-03  0.0000000000000000e+00  0.0000000000000000e+00  0.0000000000000000e+00  0.0000000000000000e+00  0.0000000000000000e+00  0.0000000000000000e+00  0.0000000000000000e+00  0.0000000000000000e+00  0.0000000000000000e+00  0.0000000000000000e+00  0.0000000000000000e+00  0.0000000000000000e+00  0.0000000000000000e+00  0.0000000000000000e+00  0.0000000000000000e+00  0.0000000000000000e+00  0.0000000000000000e+00  0.0000000000000000e+00  0.0000000000000000e+00  0.0000000000000000e+00  0.0000000000000000e+00  0.0000000000000000e+00  0.0000000000000000e+00  0.0000000000000000e+00  0.0000000000000000e+00  0.0000000000000000e+00  0.0000000000000000e+00  0.0000000000000000e+00  0.0000000000000000e+00  0.0000000000000000e+00  0.0000000000000000e+00  0.0000000000000000e+00  0.0000000000000000e+00  0.0000000000000000e+00  0.0000000000000000e+00  0.0000000000000000e+00  0.0000000000000000e+00  0.0000000000000000e+00  0.0000000000000000e+00  0.0000000000000000e+00  0.0000000000000000e+00  0.0000000000000000e+00  0.0000000000000000e+00  0.0000000000000000e+00  0.0000000000000000e+00  0.0000000000000000e+00  0.0000000000000000e+00  1.3088380749862153e-02  2.6954649164215631e-02  4.0660180717201864e-02  5.4029329614817836e-02  6.7094669031118742e-02  8.0017220395933050e-02  9.2418173009048490e-02  1.0420184343824242e-01  1.1504459199966345e-01  1.2452993739670699e-01  1.3217357825790052e-01  1.3718548502239847e-01  1.3907132714760048e-01  1.3700062129446883e-01  1.3067552646883401e-01  1.1954843154825991e-01  1.0359625881895294e-01  8.3213726142246203e-02  5.8962442437450538e-02  3.2270637048315301e-02  4.2325156690040692e-03  -2.3023225370470898e-02  -4.7734049285179235e-02  -6.8766169052613096e-02  -8.3767312515873771e-02  -9.2809810810622187e-02  -9.5580679922325565e-02  -9.2346558126608649e-02  -8.4746401361743107e-02  -7.4361981670293911e-02  -6.2908308448342568e-02  -5.2232337441948030e-02  -4.4130411259469801e-02  -3.9348761804396823e-02  -3.9307002226087247e-02  -4.3441832733465545e-02  -5.3434738881140982e-02  -6.8230529577950894e-02  -8.8242409474498129e-02  -1.1131362667794277e-01  -1.3754219441083954e-01  -1.6465090963678930e-01  -1.9038711316003384e-01  -2.1297124948317847e-01  -2.3021829316393264e-01  -2.4184611544078213e-01  -2.4538185338456317e-01  -2.4265108429825935e-01  -2.3351221237229938e-01  -2.1969382040726756e-01  -2.0259441888132829e-01  -1.8436143189193430e-01  -1.6600444865652375e-01  -1.5029453768924145e-01  -1.3768923256381829e-01  -1.2739861347942838e-01  -1.1889638587379221e-01  -1.1225641241273937e-01  -1.0753414786116412e-01  -1.0456674312120487e-01  -1.0357914524990300e-01  -1.0429370059631014e-01  -1.0681079115310316e-01  -1.1083976288831195e-01  -1.1633572435647377e-01  -1.2290122950218692e-01  -1.3020083088984552e-01  -1.3791790316788780e-01  -1.4552583220094076e-01  -1.5280248174979344e-01  -1.5958759132454442e-01  -1.6577926582470501e-01  -1.7149290587687288e-01  -1.7695727723285287e-01  -1.8240404379019079e-01  -1.8811435204176533e-01  -1.9424280636888797e-01  -2.0098022287097958e-01  -2.0842718929179746e-01  -2.1670475718443166e-01  -2.2586801721891792e-01  -2.3592005611789987e-01  -2.4693723892502559e-01  -2.5888462586669247e-01  -2.7155509909369646e-01  -2.8487027353558081e-01  -2.9850780251382092e-01  -3.1226275897447703e-01  -3.2570802403105781e-01  -3.3848289759952022e-01  -3.5046498822378630e-01  -3.6110046180810501e-01  -3.7031669027588354e-01  -3.7805292474036550e-01  -3.8449692929015850e-01  -3.8901183344563550e-01  -3.9222258458925863e-01  -3.9419135180291159e-01  -3.9409690500223771e-01  -3.9327340038033570e-01  -3.8984026953835427e-01  -3.8473854369381749e-01  -3.7556495889899499e-01  -3.6283273062426763e-01  -3.4407946382287014e-01  -3.1715428205793722e-01  -2.7943649029861617e-01  -2.3358942343001096e-01  -1.7112772141172505e-01  -9.8335448710730550e-02  -1.3311260286263820e-02  7.9394110592201972e-02  1.7631640266775550e-01  2.7305797284431294e-01  3.6617613748326944e-01  4.5105561619368112e-01  5.2674732921068623e-01  5.9247956077726704e-01  6.4981504074963614e-01  6.9767565243085172e-01  7.3943180768963335e-01  7.7757336257474796e-01  8.1017212728020827e-01  8.4028326321772706e-01  8.6438408243013243e-01  8.8602561886034137e-01  9.0267672313157665e-01  9.1680460762771943e-01  9.2887474276224213e-01  9.3700979924953887e-01  9.4489157396125101e-01  9.5265720197269099e-01  9.5730423847058665e-01  9.7319758368044684e-01  9.7695529941985204e-01  9.9513207703061746e-01  9.7770377536046227e-01  9.7355627003560674e-01  9.7188206122375143e-01  9.7206362698928817e-01  9.7376782033563780e-01  9.7738989225628292e-01  9.8259475265409857e-01  1.0015750513195143e+00  -3.9703180540450927e-01  -3.9738168001737545e-01  -4.0318385578441157e-01  -4.0554440540457304e-01  -4.0617610751458655e-01  -4.0550165839255997e-01  -4.0391386159458492e-01  -4.0181916641426724e-01  -3.9961538867024265e-01  -3.9774280935689832e-01  -3.9670061718706578e-01  -3.9699023082009977e-01  -3.9900713406018629e-01  -4.0298843354106445e-01  -4.0889264219890936e-01  -4.1667643229957335e-01  -4.2620996228360192e-01  -4.3742544159569263e-01  -4.5098083289275132e-01  -4.6697860573968319e-01  -4.8558258365061513e-01  -5.0692913813003337e-01  -5.3058914726167550e-01  -5.5622900978586121e-01  -5.8288401826055725e-01  -6.0978385700650206e-01  -6.3518536300902895e-01  -6.5751714880316825e-01  -6.7529932392376457e-01  -6.8730042807806790e-01  -6.9168014717186388e-01  -6.8784135912045508e-01  -6.7452191479791712e-01  -6.5184216128262740e-01  -6.1991684962761517e-01  -5.7868187591147735e-01  -5.2937025055769271e-01  -4.7275389227501735e-01  -4.0905830701650314e-01  -3.4058736679880719e-01  -2.6795602013560332e-01  -1.9133793724921933e-01  -1.1250718523339981e-01  -3.3498964290106410e-02  4.7746014239074604e-02  1.2723572139439016e-01  2.0706373128652350e-01  2.8497613682606565e-01  3.5998780183485785e-01  4.3279851540904357e-01  5.0311514885521769e-01  5.6975243924225727e-01  6.3254746818031549e-01  6.9234969443442307e-01  7.4783348311844922e-01  7.9910392720881840e-01  8.4628069930487559e-01  8.8938764554623395e-01  9.2792823290220317e-01  9.6207380011727806e-01  9.9346328981283272e-01  1.0127596212810042e+00  1.0965691303304619e+00  1.0975669701594071e+00  1.1024422459901753e+00  1.1045569900598486e+00  1.1053925771519144e+00  1.1051758518619841e+00  1.1041435571845126e+00  1.1024930762994642e+00  1.1002526793503795e+00  1.0975264908360181e+00  1.0943581564600842e+00  1.0907761388565405e+00  1.0868098704380358e+00  1.0824665595591030e+00  1.0777547320159353e+00  1.0726658552306745e+00  1.0671938528498555e+00  1.0613240066975951e+00  1.0550355074151232e+00  1.0483291134646886e+00  1.0410883797386752e+00  1.0333939812664232e+00  1.0251041300004355e+00  1.0162426954404808e+00  1.0066576049519353e+00  9.9636365691169315e-01  9.8520678309634058e-01  9.7308054581130476e-01  9.5992793681989630e-01  9.4555524987726525e-01  9.2978022198164845e-01  9.1236205751892052e-01  8.9301489119838062e-01  8.7137930759781335e-01  8.4699900513669335e-01  8.1927545163956450e-01  7.8733721184743999e-01  7.5013573566747493e-01  7.0613659580643073e-01  6.5287646816437050e-01  5.8656239232372598e-01  5.0032788719974786e-01  3.7915281972435849e-01  2.4087846366542612e-01  -4.5283397646635037e-01  -3.5169102084774612e-01  -3.3398433219545864e-01  -3.2089374418794692e-01  -3.1327656725833508e-01  -3.0865739878701814e-01  -3.0579228089487259e-01  -3.0411553944861447e-01  -3.0320791969741884e-01  -3.0278393600363207e-01  -3.0265338469635539e-01  -3.0268221838298726e-01  -3.0277868175857853e-01  -3.0288211624134059e-01  -3.0294343418638353e-01  -3.0292694972054152e-01  -3.0279537674066936e-01  -3.0251602697281216e-01  -3.0205497158015171e-01  -3.0137762838586984e-01  -3.0045406942802289e-01  -2.9925566603110842e-01  -2.9776205824381902e-01  -2.9596409987660527e-01  -2.9386047503943691e-01  -2.9147175980795448e-01  -2.8883545798298388e-01  -2.8600309272775670e-01  -2.8306120391885276e-01  -2.8010170073391938e-01  -2.7725828379608963e-01  -2.7466420858245533e-01  -2.7248475531800825e-01  -2.7088837696594609e-01  -2.7004615935514437e-01  -2.7016131991210462e-01  -2.7137890853794661e-01  -2.7390468599271056e-01  -2.7785887510331525e-01  -2.8344987423870627e-01  -2.9076737369773731e-01  -3.0000258791957973e-01  -3.1207594573822628e-01  -3.2071068031958938e-01  -3.2416280880743942e-01  -2.7308998525164296e-01  -2.8224726489100366e-01  -3.7838301934616869e-01  -2.8075934123942031e-01  -2.7561149177761191e-01  -2.9649440196194421e-01  -3.0213068022814776e-01  -8.9297193284296177e-03  -4.0252967831431036e-01  -3.9925776286509057e-01  -1.1572041912599385e-01  -2.2605435427161960e-01  -1.3522642775311397e-01  -1.7984803481288403e-01  -1.9734753443379360e-01  -2.0709274613533796e-01  -1.6257343757724207e-01  -3.4892471778269762e-01  1.0690978009442278e+00  1.0972010910689161e+00  1.0875355026936413e+00  1.0269195254730368e+00  9.6436187723909639e-01  -1.1907070184618873e-02  -2.0036434800596237e-01  -1.0608645128801686e-01  -1.6826882113272007e-01  -1.7698664587220730e-01  5.8410874221594918e-02  1.3631413165313488e-01  -3.2804985055485654e-03  -3.4316507168184657e-01  8.7895427529039605e-01  7.2051288560456983e-01  2.4896102449221674e-01  -3.0267841349298802e-01  -3.0616351157679206e-01  -3.4802977855613865e-01  -7.2751783431215774e-03  -2.7113727462642817e-02  -2.2274660523993858e-01  -1.3200238626099650e-01  -4.9693956605178655e-02  -1.2858028526655960e-01  -8.7418222923149699e-02  5.2500443975958440e-02  1.4276816117104173e-02  7.3696469951524540e-02  -3.5236738158006758e-01  1.0030137614040704e+00  8.6363209903122951e-01  6.6407182315002411e-01  -3.9845514092517414e-01  -3.7884012411250972e-01  9.0656979321215565e-04  9.0564863596540124e-01  1.1964120785290452e-01  3.5371508137033818e-02  -2.8459870212291616e-01  3.9471198552090880e-01  -7.5437921923849405e-02  -2.2949830110745972e-01  -2.4114299338497944e-02  -1.7910435882203180e-01  -5.9189133977763049e-02  -7.7295726265247749e-02  -1.2805385470696590e-01  -2.3749471769431035e-01  -4.5771077074056164e-02  1.1030828300859006e+00  4.5970485467333577e-03  -1.4644698155963779e-03  9.3898237981978028e-01  -4.2114016869009552e-01  8.6136520532888949e-02  8.4183444128053297e-01  9.0936535587273881e-01  -3.9200468953785333e-01  -4.5341236367580229e-01  -1.4970519868085239e-01  -5.1329199745059773e-01  -5.8663990473484096e-01  -6.5574563726557555e-01  -6.7961094438120262e-01  -6.2674305732114044e-01  -4.9484171550616679e-01  8.2159249381502053e-01  -1.2517665529455360e-01  7.1898439931869940e-01  -3.8479617242989195e-01  7.3675614529604005e-01  5.5375441109556534e-01  1.4248511089690543e-02  7.2454977330218537e-02  -1.8510686023344658e-01  -2.3882231740505067e-01  -2.1163959895098136e-01  7.1553489552103777e-02  1.1103827206861065e-01  9.0046921939015909e-02  -2.9028702542554646e-01  -2.7332509440521707e-01  -2.9020213276089557e-01  9.9990028420259913e-01  -3.0036240502832517e-01  1.0834042179975332e+00  1.0509016816909880e+00  6.1265866111675669e-03  -5.6837373122969465e-03  1.3513074622229109e-03  -1.0175710092188719e-02  9.5198699170276169e-01  -3.5233494067708865e-01  3.0897893459740933e-01  9.4254843421560652e-01  5.3143154983800478e-01  -2.5716477391069315e-01  9.7240586408579621e-01  3.2595369004837497e-02  1.8773196693031157e-03  9.6240266002226238e-01  8.7686348074282561e-01  -4.0241005145293757e-01  -4.0628342595897321e-01  -3.9706136172072604e-01  -3.9719071366884817e-01  7.7333410890413345e-01  -3.0807649825029282e-01  2.4880775870378533e-01  9.4109579396240506e-01  5.3749124672712623e-01  9.2557245847614289e-01  3.4316331820370062e-02  -1.4319890302306446e-01  -1.1795837795256384e-01  8.8025596280057172e-01  -3.2483575639277823e-01  -3.5941861708548195e-01  -2.1369334000887519e-01  -1.9306721616425471e-01  -1.8443367537369909e-01  -3.1674446310321025e-01  -1.0618128763477234e-01  -2.5049371135815479e-01  -1.1431497879258844e-01  -1.5626540647431633e-01  -3.8811965439350665e-01  -1.3377281252636233e-01  -1.8428734609967637e-01  -2.0999298990738782e-01  -3.6242489941110423e-01  -2.2453816971639184e-01  -3.2638026051677949e-01  2.5523927916305666e-01  2.4105529800706450e-02  -3.4984009183181397e-02  6.6066257275846724e-02  -1.6337730298971651e-01  -7.9269899126874155e-02  4.7482948821179774e-02  -1.6947616374870808e-01  -3.8436655575644754e-02  -9.0424977788071875e-02  7.3149181752532582e-03  2.4745195623201308e-02  -2.0893766092102969e-01  -1.8042909508585847e-01  1.3304412009938321e-01  -3.5875475365113145e-02  -3.8087541571024466e-02  -7.8372239177627340e-02  -2.4438676019450956e-01  9.7702639743072778e-02  6.6438414399450127e-02  -9.4329483856142315e-02  -6.6289557770393387e-02  9.5784652509788415e-01  9.7190026170204491e-01  -2.7861835629361026e-01  -2.7710646030039160e-01  9.3530668105814285e-01  8.2921161739545102e-01  6.0720981326202306e-01  1.0912385081234350e+00  -3.1947869448787036e-01  1.1015402441305733e+00  1.0998508621874468e+00  -4.3004383339945784e-01  -4.1346014534691300e-01  -3.5160610263405151e-01  -2.8660097431566711e-01  -3.1979673354338778e-01  -2.2916291577848127e-01  -1.5427719444650756e-01  -3.3366693824739585e-02  -2.4256777831828714e-02  9.2846593170369543e-02  9.0962967241442136e-02  1.8716305780370854e-01  -3.6584875333899356e-04  1.7804440923155604e-01  2.5961447221131517e-01  2.7960623795713524e-01  3.3564433731055143e-01  3.6257530369992902e-01  4.0543409536964409e-01  4.3481500045185101e-01  4.6718245557829319e-01  4.9669590799527996e-01  5.2098783495837164e-01  5.4954295818825938e-01  5.6783568377115701e-01  5.9480174713476719e-01  6.0864068243417369e-01  6.3375439111552478e-01  6.2322750667162807e-01  6.5973015024053738e-01  6.5246281772653414e-01  6.8606639750267728e-01  6.9116972131249332e-01  7.1495693579104080e-01  7.1226414544152483e-01  7.3847401795154188e-01  7.3788447624967679e-01  7.6140828574556385e-01  7.6122975645224678e-01  7.8188994222426933e-01  7.8351552952497205e-01  8.0181173989596144e-01  8.0462416916632828e-01  8.2086842284466821e-01  8.2462888259011491e-01  8.3898064060611321e-01  8.3519521797665619e-01  8.5167962728994506e-01  8.5610769405771725e-01  8.6731549040883360e-01  8.7224084841461513e-01  8.8209085299905099e-01  8.8739329426322100e-01  8.9601480594044036e-01  8.9086342397199147e-01  9.0369765928806789e-01  9.0910818094965373e-01  9.1580045094710949e-01  9.2139345984874244e-01  9.2719284460946738e-01  9.3291093372292810e-01  9.3788501503929755e-01  9.4369105507277906e-01  9.4792556398537453e-01  9.5377010037738597e-01  9.5733077683173573e-01  9.6318747273626348e-01  9.6612247585397237e-01  9.7197366192917400e-01  9.7425247309399421e-01  9.6865150299234759e-01  9.8014874020476672e-01  9.8187447024760222e-01  9.8775821967798516e-01  9.8911567292830171e-01  9.9486469978968428e-01  9.9576482220638518e-01  1.0014265460256968e+00  1.0020099473471846e+00  1.0075195719364491e+00  1.0074535304216161e+00  9.3232108697036209e-01  9.9639199811805101e-01  1.0071327889685224e+00  1.0131212304708668e+00  9.7793924875442306e-01  1.0128560460700222e+00  1.0187425373148049e+00  9.3889013386407039e-01  1.0185708232995074e+00  1.0243596503381407e+00  1.0242501919696361e+00  1.0299352428830451e+00  1.0296622650968261e+00  1.0351332782255793e+00  1.0345011887475211e+00  1.0398616939173999e+00  1.0388783220711324e+00  1.0441269796201369e+00  1.0429135214663161e+00  1.0479586284464355e+00  1.0463550052812067e+00  1.0493073797957493e+00  1.0530057146029734e+00  7.8112681217361479e-01  8.7771640155373554e-01  8.4787785016994466e-01  8.9867149603359342e-01  1.0354421621690413e+00  1.0543852648864183e+00  1.0579681823133467e+00  8.0835311317065106e-01  1.0593453811014755e+00  1.0628124395645346e+00  1.0610861990551195e+00  1.0658082228660772e+00  1.0637330524130599e+00  1.0683226291622718e+00  1.0658917627426041e+00  1.0703354340730598e+00  1.0675553303015219e+00  2.4719181941233243e-01  4.4188948517190607e-01  5.8482921328001203e-01  6.2186211436877292e-01  1.0381528124538368e+00  1.0180617750818142e+00  1.0727633798302805e+00  1.0746242588441797e+00  1.0641596985302688e+00  1.0603395437293024e+00  1.0770272390611566e+00  1.0787295082859789e+00  1.0650923941639139e+00  1.0609194242526314e+00  6.0059282945103953e-01  6.3442864346921923e-01  4.6966624135926421e-01  1.0810816618351544e+00  1.0826169088623083e+00  1.0798583809193523e+00  1.0835439419125672e+00  1.08037030939