<?xml version="1.0"?>
<VTKFile type="UnstructuredGrid"  version="0.1"  >
<UnstructuredGrid>
<Piece  NumberOfPoints="22947" NumberOfCells="45411">
<Points>
<DataArray  type="Float64"  NumberOfComponents="3"  format="ascii">0 0 0  5 0 0  5 1 0  0 1 0  1.5 0.2 0  1.3 0.6 0  1.7 0.6 0  0.09988181715350253 0 0  0.1997636343069831 0 0  0.2996454514604577 0 0  0.3995272686139624 0 0  0.4994090857674671 0 0  0.5992909029209642 0 0  0.6991727200743116 0 0  0.7977480796387948 0 0  0.8833077882008854 0 0  0.9552465290058831 0 0  1.015928428880551 0 0  1.06737033859586 0 0  1.111317272793253 0 0  1.14931422653285 0 0  1.182777857033489 0 0  1.213067364367625 0 0  1.241543873852857 0 0  1.269517245850398 0 0  1.297484154653317 0 0  1.325451063456236 0 0  1.353417972259155 0 0  1.381384881062075 0 0  1.409351789864994 0 0  1.437318698667913 0 0  1.465285607470832 0 0  1.493252516273751 0 0  1.521219425076671 0 0  1.54918633387959 0 0  1.577153242682509 0 0  1.605120151485428 0 0  1.633087060288348 0 0  1.661053969091267 0 0  1.689020877894186 0 0  1.716987786697105 0 0  1.744954695500025 0 0  1.772921604302944 0 0  1.800888513105863 0 0  1.828855421908782 0 0  1.856822330711702 0 0  1.884789239514621 0 0  1.91275614831754 0 0  1.940723057120459 0 0  1.968689965923379 0 0  1.996656874726308 0 0  2.02462378352929 0 0  2.052590692332318 0 0  2.080557601135361 0 0  2.108524509938404 0 0  2.136491418741448 0 0  2.164458327544491 0 0  2.192425236347535 0 0  2.220392145150578 0 0  2.248359053953621 0 0  2.276325962756665 0 0  2.304292871559708 0 0  2.332259780362751 0 0  2.360226689165795 0 0  2.388193597968838 0 0  2.416160506771881 0 0  2.444127415574925 0 0  2.472094324377968 0 0  2.500061233181011 0 0  2.528028141984055 0 0  2.555995050787098 0 0  2.583961959590142 0 0  2.611928868393185 0 0  2.639895777196228 0 0  2.667862685999272 0 0  2.695829594802315 0 0  2.723796503605358 0 0  2.751763412408402 0 0  2.779730321211445 0 0  2.807697230014488 0 0  2.835664138817531 0 0  2.863631047620574 0 0  2.891597956423618 0 0  2.919564865226662 0 0  2.947531774029705 0 0  2.975498682832749 0 0  3.003466037710658 0 0  3.031764566682743 0 0  3.061630572857904 0 0  3.094429607623581 0 0  3.13021238288224 0 0  3.166169837057582 0 0  3.202127291232924 0 0  3.238084745408265 0 0  3.274042199583607 0 0  3.309999653758949 0 0  3.34595710793429 0 0  3.381914562109632 0 0  3.417872016284973 0 0  3.453829470460315 0 0  3.489786924635657 0 0  3.525744378810998 0 0  3.56170183298634 0 0  3.597659287161681 0 0  3.633616741337023 0 0  3.669574195512365 0 0  3.705531649687707 0 0  3.741489103863048 0 0  3.77744655803839 0 0  3.813404012213732 0 0  3.849361466389073 0 0  3.885318920564415 0 0  3.921276374739756 0 0  3.957233828915097 0 0  3.993191283090439 0 0  4.02914873726578 0 0  4.065106191441122 0 0  4.101063645616464 0 0  4.137021099791806 0 0  4.172978553967147 0 0  4.208936008142489 0 0  4.24489346231783 0 0  4.280850916493172 0 0  4.316808370668514 0 0  4.352765824843855 0 0  4.388723279019197 0 0  4.424680733194538 0 0  4.46063818736988 0 0  4.496595641545222 0 0  4.532553095720563 0 0  4.568510549895905 0 0  4.604468004071246 0 0  4.640425458246588 0 0  4.676382912421929 0 0  4.712340366597271 0 0  4.748297820772613 0 0  4.784255274947953 0 0  4.820212729123295 0 0  4.856170183298635 0 0  4.892127637473977 0 0  4.928085091649318 0 0  4.964042545824659 0 0  5 0.0328500670419322 0  5 0.06090401573905966 0  5 0.08486207734983149 0  5 0.1054388876402908 0  5 0.1251669432582367 0  5 0.1448949988761606 0  5 0.1646230544940819 0  5 0.1843511101120033 0  5 0.2040791657299246 0  5 0.2238072213478459 0  5 0.2435352769657672 0  5 0.2632633325836884 0  5 0.2829913882016097 0  5 0.3027194438195311 0  5 0.3224474994374524 0  5 0.3421755550553737 0  5 0.3619036106732951 0  5 0.3816316662912164 0  5 0.4013597219091377 0  5 0.421087777527059 0  5 0.4408158331449803 0  5 0.4605438887629016 0  5 0.4802719443808229 0  5 0.4999999999987551 0  5 0.519728055616775 0  5 0.5394561112348057 0  5 0.5591841668528366 0  5 0.5789122224708674 0  5 0.5986402780888981 0  5 0.6183683337069288 0  5 0.6380963893249596 0  5 0.6578244449429903 0  5 0.6775525005610212 0  5 0.6972805561790519 0  5 0.7170086117970828 0  5 0.7367366674151135 0  5 0.7564647230331443 0  5 0.776192778651175 0  5 0.7959208342692058 0  5 0.8156488898872365 0  5 0.8353769455052672 0  5 0.855105001123298 0  5 0.8748330567413287 0  5 0.8945611123593595 0  5 0.9151379226498687 0  5 0.9390959842606995 0  5 0.9671499329579316 0  4.964042545824707 1 0  4.928085091649415 1 0  4.892127637474122 1 0  4.856170183298829 1 0  4.820212729123536 1 0  4.784255274948244 1 0  4.748297820772951 1 0  4.712340366597658 1 0  4.676382912422365 1 0  4.640425458247072 1 0  4.604468004071779 1 0  4.568510549896486 1 0  4.532553095721194 1 0  4.496595641545901 1 0  4.460638187370608 1 0  4.424680733195316 1 0  4.388723279020023 1 0  4.35276582484473 1 0  4.316808370669437 1 0  4.280850916494145 1 0  4.244893462318852 1 0  4.208936008143559 1 0  4.172978553968266 1 0  4.137021099792974 1 0  4.101063645617681 1 0  4.065106191442388 1 0  4.029148737267096 1 0  3.993191283091803 1 0  3.95723382891651 1 0  3.921276374741217 1 0  3.885318920565925 1 0  3.849361466390632 1 0  3.813404012215339 1 0  3.777446558040046 1 0  3.741489103864753 1 0  3.705531649689461 1 0  3.669574195514167 1 0  3.633616741338875 1 0  3.597659287163582 1 0  3.561701832988289 1 0  3.525744378812996 1 0  3.489786924637703 1 0  3.45382947046241 1 0  3.417872016287117 1 0  3.381914562111825 1 0  3.345957107936532 1 0  3.309999653761239 1 0  3.274042199585946 1 0  3.238084745410653 1 0  3.20212729123536 1 0  3.166169837060067 1 0  3.130212382884775 1 0  3.094429607626076 1 0  3.061630572860181 1 0  3.031764566684895 1 0  3.00346603771278 1 0  2.97549868283491 1 0  2.947531774031904 1 0  2.919564865228899 1 0  2.891597956425894 1 0  2.863631047622888 1 0  2.835664138819883 1 0  2.807697230016877 1 0  2.779730321213872 1 0  2.751763412410866 1 0  2.723796503607861 1 0  2.695829594804855 1 0  2.66786268600185 1 0  2.639895777198844 1 0  2.611928868395839 1 0  2.583961959592834 1 0  2.555995050789828 1 0  2.528028141986823 1 0  2.500061233183817 1 0  2.472094324380812 1 0  2.444127415577806 1 0  2.416160506774801 1 0  2.388193597971795 1 0  2.36022668916879 1 0  2.332259780365785 1 0  2.304292871562779 1 0  2.276325962759774 1 0  2.248359053956768 1 0  2.220392145153763 1 0  2.192425236350757 1 0  2.164458327547752 1 0  2.136491418744747 1 0  2.108524509941741 1 0  2.080557601138736 1 0  2.05259069233573 1 0  2.024623783532725 1 0  1.99665687472972 1 0  1.968689965926714 1 0  1.940723057123709 1 0  1.912756148320703 1 0  1.884789239517698 1 0  1.856822330714692 1 0  1.828855421911687 1 0  1.800888513108681 1 0  1.772921604305676 1 0  1.74495469550267 1 0  1.716987786699665 1 0  1.68902087789666 1 0  1.661053969093654 1 0  1.633087060290649 1 0  1.605120151487644 1 0  1.577153242684639 1 0  1.549186333881632 1 0  1.521219425078627 1 0  1.493252516275621 1 0  1.465285607472617 1 0  1.437318698669611 1 0  1.409351789866606 1 0  1.3813848810636 1 0  1.353417972260594 1 0  1.32545106345759 1 0  1.297484154654584 1 0  1.269517245851579 1 0  1.241543873853952 1 0  1.213067364368676 1 0  1.182777857034534 1 0  1.149314226533915 1 0  1.111317272794346 1 0  1.067370338596986 1 0  1.015928428881706 1 0  0.9552465290070451 1 0  0.8833077882020213 1 0  0.7977480796398604 1 0  0.6991727200751363 1 0  0.5992909029215436 1 0  0.4994090857679536 1 0  0.3995272686143618 1 0  0.2996454514607718 1 0  0.1997636343071827 1 0  0.09988181715359001 1 0  0 0.8999999999995836 0  0 0.7999999999999998 0  0 0.7000000000006934 0  0 0.6000000000013869 0  0 0.5000000000020587 0  0 0.4000000000016644 0  0 0.3000000000012483 0  0 0.2000000000008322 0  0 0.100000000000416 0  1.699751384242739 0.6099691771530924 0  1.699006155066563 0.6199135693842884 0  1.697766165232479 0.6298084533184788 0  1.696034497548046 0.6396292287470388 0  1.693815457209259 0.649351479681627 0  1.691114561101324 0.6589510350634165 0  1.687938524092297 0.6684040288434037 0  1.684295242284711 0.6776869594669508 0  1.680193773487681 0.6867767480162182 0  1.67564431456081 0.6956507959321996 0  1.670658176173392 0.7042870409263378 0  1.665247754668492 0.7126640118983073 0  1.659426501197733 0.720760882390984 0  1.653208888346202 0.7285575222681306 0  1.646610374031267 0.7360345479149025 0  1.639647363235856 0.7431733702239103 0  1.632337167092531 0.7499562409702357 0  1.62469795989353 0.756366296874971 0  1.616748733919558 0.7623876015223461 0  1.608509252208739 0.7680051849946904 0  1.599999999406289 0.7732050810996667 0  1.591242130860608 0.7779743620750351 0  1.582257419988525 0.7823011707500295 0  1.573068204170437 0.7861747500046861 0  1.563697329302744 0.7895854694846042 0  1.554168092871136 0.7925248496031199 0  1.544504185999879 0.7949855826169927 0  1.534729634727922 0.7969615507444667 0  1.524868740094186 0.7984478414247124 0  1.514946017836289 0.7994407595022575 0  1.504986137413824 0.7999378364234504 0  1.495013860716175 0.7999378363768156 0  1.485053980351481 0.7994407593664496 0  1.475131258156531 0.7984478412054987 0  1.465270363613604 0.7969615504520329 0  1.4554958123743 0.7949855822459098 0  1.445831905597438 0.7925248491722436 0  1.436302669250897 0.7895854689986533 0  1.426931794485273 0.786174749477091 0  1.417742578777908 0.7823011701934227 0  1.408757867959409 0.7779743614700931 0  1.399999999478033 0.7732050804555297 0  1.391490746737941 0.7680051843143844 0  1.383251265066765 0.7623876007935619 0  1.375302039213222 0.7563662961626294 0  1.367662832117841 0.7499562402733849 0  1.360352636037667 0.7431733695153243 0  1.353389625336735 0.736034547233771 0  1.346791111115898 0.7285575216270866 0  1.340573498342716 0.7207608817842938 0  1.33475224496031 0.7126640113538593 0  1.329341823531611 0.7042870404435957 0  1.324355685207748 0.6956507955072012 0  1.319806226317615 0.6867767476119111 0  1.315704757542792 0.6
[...]
<PointData  Scalars="Pressure"> 
<DataArray  type="Float64"  Name="Pressure"  format="ascii">9.6451785473042029e-01  0.0000000000000000e+00  0.0000000000000000e+00  9.5897582744226550e-01  -5.7120240944677947e-01  9.9537825089394572e-01  -4.8311979407964478e-01  9.1467142133463630e-01  9.1126162076479611e-01  8.9716893347560844e-01  8.9439271108151830e-01  8.8913117399990471e-01  8.8585480774165448e-01  8.8207238155542134e-01  8.7832177383037557e-01  8.7365171839038303e-01  8.6848996037697113e-01  8.6246826787304509e-01  8.5493124928124242e-01  8.4592923183466417e-01  8.3555879197211314e-01  8.2378805976470237e-01  8.0991857590197913e-01  7.9348687489717606e-01  7.7332457945612765e-01  7.4792894312968050e-01  7.1633458531048766e-01  6.7626697537746994e-01  6.2736781585098966e-01  5.6728041846114874e-01  4.9499906550040185e-01  4.1246649728552093e-01  3.1896196498934926e-01  2.2144375586519147e-01  1.2184454549699811e-01  2.7234210212055066e-02  -5.9756249732548575e-02  -1.3599313009444539e-01  -2.0153199478051889e-01  -2.5550311905080753e-01  -2.9909707146300135e-01  -3.3455494751364845e-01  -3.6011636869159480e-01  -3.7949231016885426e-01  -3.9022738642034605e-01  -3.9396283150043493e-01  -3.9136833163962798e-01  -3.8386548605277337e-01  -3.6999022861542741e-01  -3.5269375392948465e-01  -3.3167766206962929e-01  -3.0868725463108138e-01  -2.8433307176536049e-01  -2.5996876903408872e-01  -2.3586688932282490e-01  -2.1295483141126814e-01  -1.9129054238885984e-01  -1.7109208845030024e-01  -1.5245822239807949e-01  -1.3538638561932101e-01  -1.1947740823458983e-01  -1.0469820497399430e-01  -9.0657835480483021e-02  -7.7137185205878991e-02  -6.4085798532182450e-02  -5.1699099847515854e-02  -4.0541002779826189e-02  -3.0810340930404551e-02  -2.3024976637662724e-02  -1.7319056640625673e-02  -1.3769988814984296e-02  -1.2566452496177412e-02  -1.3319144719826041e-02  -1.6086156744124239e-02  -2.0475465550234381e-02  -2.6150797522291123e-02  -3.2632245849943953e-02  -3.9386857269724532e-02  -4.5966316704112935e-02  -5.1857013791460890e-02  -5.6594326150413522e-02  -5.9795781936630932e-02  -6.1276200482582824e-02  -6.0797154826013007e-02  -5.8601940550478952e-02  -5.4864255295100361e-02  -4.9818375287066653e-02  -4.3700254165117219e-02  -3.6660299095939125e-02  -2.8570578062707637e-02  -1.9976469549507811e-02  -1.1880076584789123e-02  -4.6979550423292323e-03  1.5442550991856018e-03  6.8274880359256206e-03  1.1222546469864262e-02  1.4685529142621332e-02  1.7451040223141808e-02  1.9681501067780230e-02  2.1285755568206034e-02  2.2523854578176700e-02  2.3401903208412667e-02  2.3957158556689780e-02  2.4314764165258212e-02  2.4458714378445524e-02  2.4439161852182686e-02  2.4315537578922866e-02  2.4052362203912422e-02  2.3733083509039243e-02  2.3330074210697313e-02  2.2853398277785212e-02  2.2353392443897419e-02  2.1798252075491558e-02  2.1213098190336666e-02  2.0599221579306593e-02  1.9962490944943564e-02  1.9311468856622459e-02  1.8634800489376178e-02  1.7957353994615840e-02  1.7256566127881078e-02  1.6550329353852863e-02  1.5847377824923840e-02  1.5125525769709717e-02  1.4410066303591212e-02  1.3671723351158778e-02  1.2947687183523311e-02  1.2220652452696865e-02  1.1469206136563955e-02  1.0742494263712229e-02  9.9915417825139994e-03  9.2506940271143406e-03  8.5032710222047326e-03  7.7519948611895146e-03  6.9950049061323800e-03  6.2373482483343038e-03  5.4738712623499360e-03  4.7045788288786906e-03  3.9347021946882265e-03  3.1454813334287957e-03  2.3655054236272881e-03  1.5608145955802260e-03  7.4904497332906777e-04  0.0000000000000000e+00  0.0000000000000000e+00  0.0000000000000000e+00  0.0000000000000000e+00  0.0000000000000000e+00  0.0000000000000000e+00  0.0000000000000000e+00  0.0000000000000000e+00  0.0000000000000000e+00  0.0000000000000000e+00  0.0000000000000000e+00  0.0000000000000000e+00  0.0000000000000000e+00  0.0000000000000000e+00  0.0000000000000000e+00  0.0000000000000000e+00  0.0000000000000000e+00  0.0000000000000000e+00  0.0000000000000000e+00  0.0000000000000000e+00  0.0000000000000000e+00  0.0000000000000000e+00  0.0000000000000000e+00  0.0000000000000000e+00  0.0000000000000000e+00  0.0000000000000000e+00  0.0000000000000000e+00  0.0000000000000000e+00  0.0000000000000000e+00  0.0000000000000000e+00  0.0000000000000000e+00  0.0000000000000000e+00  0.0000000000000000e+00  0.0000000000000000e+00  0.0000000000000000e+00  0.0000000000000000e+00  0.0000000000000000e+00  0.0000000000000000e+00  0.0000000000000000e+00  0.0000000000000000e+00  0.0000000000000000e+00  0.0000000000000000e+00  0.0000000000000000e+00  0.0000000000000000e+00  0.0000000000000000e+00  0.0000000000000000e+00  0.0000000000000000e+00  7.6378941928029642e-04  1.4613162080433604e-03  2.1631662730581961e-03  2.8823593773555679e-03  3.6131391909203204e-03  4.3331529235726791e-03  5.0705059168063950e-03  5.8094999284183189e-03  6.5556049021194647e-03  7.2885579324969011e-03  8.0445924477649186e-03  8.7916870720450950e-03  9.5496424537114197e-03  1.0294748873285565e-02  1.1059742083089798e-02  1.1820471589073570e-02  1.2584548671324840e-02  1.3350377792389727e-02  1.4115370910657848e-02  1.4894268323629660e-02  1.5667498874596231e-02  1.6458906679711935e-02  1.7242366522308587e-02  1.8044193884916345e-02  1.8846211096869694e-02  1.9667745378226908e-02  2.0497521186113681e-02  2.1347863416957026e-02  2.2209543420923648e-02  2.3109266146865187e-02  2.4016828312995089e-02  2.4956532820208672e-02  2.5940785527380040e-02  2.6968973427372516e-02  2.8036897404154642e-02  2.9158690409289357e-02  3.0352567826503501e-02  3.1623972580616423e-02  3.2961794870840930e-02  3.4386512635637530e-02  3.5923061563550976e-02  3.7548402811891410e-02  3.9274422525855453e-02  4.1092722810548682e-02  4.2975195183250874e-02  4.4888998717577511e-02  4.6770329479113602e-02  4.8526040462247538e-02  5.0019876474630423e-02  5.1068047580472710e-02  5.1426749854520143e-02  5.0914496398285193e-02  4.8918873872448393e-02  4.5678690283699676e-02  4.1191924632581693e-02  3.5191001259713701e-02  2.7454606587565499e-02  1.7532096716077472e-02  4.9093224524580058e-03  -1.0586452432862974e-02  -2.9900827792803598e-02  -5.3049934188084444e-02  -8.0861963759061087e-02  -1.1271566471381958e-01  -1.4882832954104455e-01  -1.8729593715149173e-01  -2.2635962019757014e-01  -2.6341093195015103e-01  -2.9540749780982711e-01  -3.1950020942719465e-01  -3.3482478105457064e-01  -3.4054577691101839e-01  -3.3701734243231535e-01  -3.2619492931036947e-01  -3.1072842308300225e-01  -2.9237445641292215e-01  -2.7354547116544331e-01  -2.5570146300184959e-01  -2.3995755041437933e-01  -2.2680366549727932e-01  -2.1660878820359925e-01  -2.0957813984371476e-01  -2.0606822629318802e-01  -2.0551909202304158e-01  -2.0702698807186018e-01  -2.0982427789405939e-01  -2.1310487923674504e-01  -2.1691353991897588e-01  -2.2165602519336619e-01  -2.2773908460573483e-01  -2.3509317585994943e-01  -2.4394123402140078e-01  -2.5405308255392561e-01  -2.6513189008599874e-01  -2.7716010555426523e-01  -2.8960838241247316e-01  -3.0225440900425760e-01  -3.1472908994913584e-01  -3.2614557831232072e-01  -3.3718508618603160e-01  -3.4571701433467733e-01  -3.5245296547916277e-01  -3.5462545259486922e-01  -3.5286922472414417e-01  -3.4418037543091007e-01  -3.2653761792878983e-01  -2.9705765766019715e-01  -2.5849836233129486e-01  -2.0228408548241103e-01  -1.3485804359051887e-01  -5.4129241472283415e-02  3.5233560894787262e-02  1.2940894271882381e-01  2.2389214466410370e-01  3.1519267542389368e-01  3.9859658874738935e-01  4.7305461025973133e-01  5.3771259888497480e-01  5.9407749225985240e-01  6.4110261444625849e-01  6.8205210470169553e-01  7.1936232444750636e-01  7.5109411069931109e-01  7.8028147266112868e-01  8.0333701189880469e-01  8.2375549031474571e-01  8.3923813209335485e-01  8.5199205392054944e-01  8.6291107979299686e-01  8.7017648228650857e-01  8.7745014324986470e-01  8.8480313115126108e-01  8.8918668638170739e-01  9.0492036836426093e-01  9.0860094284245907e-01  9.2674449853135288e-01  9.0924469833150745e-01  9.0498722322021208e-01  9.0316730134994239e-01  9.0318321988166306e-01  9.0471936568557498e-01  9.0819029952987440e-01  9.1327542636169734e-01  9.3217339331319038e-01  -5.2371381232105174e-01  -4.9903124905029739e-01  -4.8979332250373492e-01  -4.7862785897374588e-01  -4.6877778253867453e-01  -4.6015620767227083e-01  -4.5266898188367632e-01  -4.4619856574922745e-01  -4.4096481804517601e-01  -4.3749912241124156e-01  -4.3647523968601604e-01  -4.3819561632017956e-01  -4.4250069649086954e-01  -4.4889100444435437e-01  -4.5680187966298885e-01  -4.6604994735142086e-01  -4.7667294720354669e-01  -4.8888633966161538e-01  -5.0353851312217457e-01  -5.2079046740498602e-01  -5.4076435975151105e-01  -5.6353767580920222e-01  -5.8860750148928120e-01  -6.1557487931081023e-01  -6.4340144180849912e-01  -6.7129816742529602e-01  -6.9747119713029859e-01  -7.2031686591915722e-01  -7.3838928941765869e-01  -7.5047667462798473e-01  -7.5477039131041512e-01  -7.5073623630955921e-01  -7.3710233833452155e-01  -7.1407826796020923e-01  -6.8179414679093819e-01  -6.4019658051757167e-01  -5.9055251262073594e-01  -5.3365801192760576e-01  -4.6969322295185306e-01  -4.0101595013056995e-01  -3.2823454096047944e-01  -2.5149520726288332e-01  -1.7259123421455005e-01  -9.3565789062318883e-02  -1.2333856899256434e-02  6.7091441291372719e-02  1.4681957957034092e-01  2.2459495825725237e-01  2.9942554196632970e-01  3.7201790544522367e-01  4.4208484941598947e-01  5.0843880808988706e-01  5.7091825970135313e-01  6.3037579901337182e-01  6.8548897775329021e-01  7.3635710372878871e-01  7.8310404113822041e-01  8.2575536225846691e-01  8.6381843315982709e-01  8.9745645024219034e-01  9.2830921632780583e-01  9.4712352819668655e-01  1.0291693161242688e+00  1.0295239681101973e+00  1.0337552526912666e+00  1.0352519964272360e+00  1.0354869215615576e+00  1.0346833964742403e+00  1.0330690330800247e+00  1.0308482225840789e+00  1.0280430359676165e+00  1.0247564368778792e+00  1.0210327347571502e+00  1.0168975885452509e+00  1.0123812875194129e+00  1.0074895414578016e+00  1.0022316438946448e+00  9.9659784763448589e-01  9.9058227233379592e-01  9.8416997589784683e-01  9.7734035732110058e-01  9.7009529291232655e-01  9.6231647650300756e-01  9.5408681000358886e-01  9.4526394107098854e-01  9.3587292806108624e-01  9.2576538903377914e-01  9.1494927075624233e-01  9.0328447288292624e-01  8.9065119055128117e-01  8.7700364738168446e-01  8.6214811158858073e-01  8.4590560056728437e-01  8.2803744397366930e-01  8.0826205481854285e-01  7.8622367073731891e-01  7.6147356099892838e-01  7.3341874762393933e-01  7.0120148321074360e-01  6.6378299165924293e-01  6.1964527259407509e-01  5.6636779319499608e-01  5.0018388646783474e-01  4.1431840559510014e-01  2.9385861527290019e-01  1.5708071318841552e-01  -5.3470133755330684e-01  -4.3350810222846703e-01  -4.1639036373461763e-01  -4.0393890964767221e-01  -3.9676926794021161e-01  -3.9226042278724010e-01  -3.8910708626007107e-01  -3.8674117916415290e-01  -3.8476055196759185e-01  -3.8289634007845214e-01  -3.8096517590254464e-01  -3.7882359770382967e-01  -3.7636499909765891e-01  -3.7349631799632366e-01  -3.7014086118892986e-01  -3.6622243926415404e-01  -3.6166934319283844e-01  -3.5641895076298813e-01  -3.5041103494161058e-01  -3.4359993344665696e-01  -3.3596862204280775e-01  -3.2751983327942114e-01  -3.1830489182636784e-01  -3.0842759447055068e-01  -2.9803439849557950e-01  -2.8735362453170404e-01  -2.7666723587118003e-01  -2.6630755111973070e-01  -2.5669514355733275e-01  -2.4822095221399038e-01  -2.4137555000543034e-01  -2.3656766127351439e-01  -2.3424988334192856e-01  -2.3474839889096652e-01  -2.3837983456745346e-01  -2.4535787010067206e-01  -2.5573190472282198e-01  -2.6955559606469481e-01  -2.8665090133993271e-01  -3.0696855799863015e-01  -3.3016646535566674e-01  -3.5617467682434001e-01  -3.8588855141868139e-01  -4.1048484082504483e-01  -4.0739774737151557e-01  -2.5513721451212135e-01  -2.5529563446226772e-01  -4.9187975431308972e-01  -1.7802116611564864e-01  -2.0843804552930723e-01  -3.1376507692727468e-01  -3.5835661210832748e-01  3.6751571914572491e-04  -4.6796534357320568e-01  -4.4352314144951971e-01  2.2551563375369295e-02  -5.4121091223469496e-02  -2.5007444702155390e-01  -1.5708878149537649e-02  -2.6086585300475401e-01  -8.2980790080292161e-02  -5.2713684224260947e-02  -2.9440675911296799e-01  9.9279677055245130e-01  1.0246575046453021e+00  1.0197774319867092e+00  9.4730785192013356e-01  8.8173330283154816e-01  3.5293078014828034e-04  -2.2822082560311967e-02  -6.9217924272375511e-02  -3.3720129727522286e-01  5.0349063489156166e-02  1.0438135406106962e-02  9.9293100406890877e-03  3.7840408953260197e-04  -2.3012253213265346e-01  7.9405975735108147e-01  6.3419349744652664e-01  1.6466298959897183e-01  -3.7717001106563364e-01  -3.8864741505625977e-01  -4.2993744188702343e-01  3.4739683508534899e-04  3.4536798352375309e-03  4.2015735269886549e-02  2.3668998687229530e-02  2.9897748554093447e-02  2.3053750676888533e-02  2.1767531815597485e-02  1.8246289851184278e-02  1.5308304470570565e-02  1.4060148498693182e-02  -3.8272617374117862e-01  9.3753673458700693e-01  8.0019380172690191e-01  6.0221595067942757e-01  -4.4162115276471925e-01  -2.6706354562459739e-01  3.5031526902206994e-04  8.2804182393420256e-01  6.9155366117987843e-03  7.2573893558434818e-03  -3.6781248754500867e-01  3.3402760445878210e-01  -2.5824346326329850e-02  -2.1241471489268721e-01  2.0938703567344216e-02  2.4345160078710341e-02  1.8746609686028055e-02  1.8421724497130063e-02  3.5305615234619905e-02  4.9421346273178318e-02  2.5528630324123697e-02  1.0329024762739842e+00  3.4295228612915460e-04  3.8909159635595512e-04  8.6549685808423116e-01  -4.7078002007358299e-01  2.6034045558578117e-02  7.5906986442577229e-01  8.4514559693815205e-01  -3.1746990030208427e-01  -5.0609306700852197e-01  -2.0982471339798686e-01  -5.7038566402619428e-01  -6.4753110447864559e-01  -7.1865430794058183e-01  -7.4259442224890415e-01  -6.8877969247151738e-01  -5.5586106738464391e-01  7.6205595362171030e-01  -2.2294661731794532e-01  6.6190651611146167e-01  -3.4507950327059772e-01  6.4902916010406653e-01  4.9950735113596817e-01  4.3111728165720013e-03  3.8409467771697557e-03  -3.7095831408926076e-02  -1.2663305030130051e-01  -6.1393895569428689e-02  1.6262586010029750e-02  1.2118983831712305e-02  -7.0931821464900163e-03  -3.2291928862627961e-01  -2.3871660976082990e-01  -2.8356321509617105e-01  9.1877992365605010e-01  -3.3941691449135558e-01  1.0087015592375277e+00  9.7297592817858281e-01  3.3275226901702222e-04  3.5795620977399981e-04  3.5651863968932669e-04  3.1927719478985533e-04  8.8047236784799010e-01  -3.4560620730684305e-01  2.5900419360523419e-01  8.7530916178078466e-01  4.3879441717946388e-01  -2.7823049663938720e-01  9.0343837818933748e-01  -9.9606645070256811e-03  3.8645359975103750e-04  8.9235700022122832e-01  8.1497797438578534e-01  -4.5424898187125073e-01  -4.5320563894203636e-01  -4.3834651394150675e-01  -4.8592550044153832e-01  7.1072244205421309e-01  -3.6843784669001700e-01  1.8847680057530886e-01  8.7668789281640092e-01  4.7627301220056351e-01  8.5027553227522057e-01  1.7702696741747636e-03  4.3336287303298776e-02  -4.0320542684170749e-02  8.0028027087052922e-01  -2.4310107379023074e-01  -3.3484424140201258e-01  -3.5328736233068932e-02  -5.7062495218883146e-02  -1.2838942164980528e-02  -2.1819269118254395e-01  -3.9690010293601486e-03  -2.0615297213985881e-01  -1.3346971688410605e-01  -3.2754995049388180e-01  -2.9179480403571167e-01  -1.6755603519671994e-01  -3.0004798600252863e-01  -2.3375571830442254e-01  -2.4490128355381527e-01  -3.1813814085020486e-01  -3.8918423615336273e-01  1.5942750647338458e-01  1.9563020152129001e-02  1.2845447965304690e-02  1.1825902225983422e-02  2.4343053475525601e-02  2.2107718119043364e-02  8.8320819513573994e-03  2.3922935174779458e-02  -8.3771689360351044e-03  2.1777254066162918e-02  2.7822573617943495e-03  5.8735342767795131e-03  5.1437854834990498e-02  3.8527269225582854e-02  8.3006824951306606e-03  1.6779462038460310e-02  2.7424930251890061e-02  3.2265111567053847e-02  4.5965445318686758e-02  5.3567516749686763e-03  1.3788975008942389e-02  2.0206328468504644e-02  2.3567271535780501e-02  8.8981313687330932e-01  9.0326250332858016e-01  -2.8265254796074929e-01  -2.4258964290615054e-01  8.5171936948792426e-01  7.4359515256354536e-01  5.2089357523662483e-01  1.0176309016007445e+00  -4.0234411640065276e-01  1.0301650025769253e+00  1.0308692411556220e+00  -5.1152726723522157e-01  -4.9440171185353360e-01  -4.3272331324324642e-01  -3.6764863892611405e-01  -4.0054938702571252e-01  -3.1033944687774928e-01  -2.3632631958100536e-01  -1.1637309801509287e-01  -1.0757729039856503e-01  8.5456500919536549e-03  6.1346874996685077e-03  1.0169785389150028e-01  -8.4511962965609241e-02  9.2016139195467792e-02  1.7315951844311842e-01  1.9360840985726779e-01  2.4888286425777958e-01  2.7618813234999062e-01  3.1845260333021691e-01  3.4817557848302477e-01  3.8006818375593288e-01  4.0992759355571246e-01  4.3385215838764180e-01  4.6275479096070293e-01  4.8076595701136249e-01  5.0808400352334027e-01  5.2171024832213508e-01  5.4718146755017372e-01  5.3679877961507816e-01  5.7346103793315129e-01  5.6627447193016056e-01  6.0005947792030101e-01  6.0511789682016870e-01  6.2918347814309972e-01  6.2649131420617776e-01  6.5295342796087319e-01  6.5233068184337351e-01  6.7612594787440206e-01  6.7599751782724338e-01  6.9690935307166024e-01  6.9846640711168695e-01  7.1707681236021614e-01  7.1981102854574608e-01  7.3638014818863451e-01  7.4006043067305816e-01  7.5474548782935036e-01  7.5104812352838290e-01  7.6779083380903657e-01  7.7213621483732464e-01  7.8369371748421801e-01  7.8854635463354183e-01  7.9874769020180558e-01  8.0399081692875707e-01  8.1296363688274043e-01  8.0787818763070807e-01  8.2100295429326020e-01  8.2636335009961814e-01  8.3340957930537996e-01  8.3896985720502204e-01  8.4511913912062697e-01  8.5082320269613854e-01  8.5614234820490076e-01  8.6195308075531030e-01  8.6652760654271976e-01  8.7239520867820630e-01  8.7628942230986584e-01  8.8218764759373114e-01  8.8544964877433019e-01  8.9135983402390828e-01  8.9396483193184828e-01  8.8830525599655619e-01  8.9993145385379647e-01  9.0197481291863668e-01  9.0794477104116011e-01  9.0960561692103292e-01  9.1546053093143009e-01  9.1665519160203701e-01  9.2243836778882182e-01  9.2330358974047788e-01  9.2895069745535452e-01  9.2912626445659563e-01  8.5060011161508575e-01  9.1755994487156356e-01  9.2828691441830524e-01  9.3470767043145686e-01  8.9740939990632251e-01  9.3417276698944818e-01  9.4050301942231207e-01  8.5681400570691280e-01  9.4006929724954547e-01  9.4631244809537873e-01  9.4594865326766719e-01  9.5209783228798606e-01  9.5206976084311390e-01  9.5775982110689339e-01  9.5736288767881117e-01  9.6295112895567747e-01  9.6219285773144891e-01  9.6767722696311420e-01  9.6667912743607898e-01  9.7196721271060738e-01  9.7056787332749339e-01  9.7310810144785720e-01  9.7727196241779735e-01  6.9621203317616498e-01  7.9396905219393199e-01  7.6408523577353227e-01  8.1604949199121180e-01  9.5783102378458373e-01  9.7845044758186484e-01  9.8250588856249510e-01  7.2346720309240187e-01  9.8368835163651291e-01  9.8763469309077290e-01  9.8609252824294358e-01  9.9110578091415891e-01  9.8920348074006736e-01  9.9409094932554076e-01  9.9182111864836120e-01  9.9656929882010070e-01  9.9394071877835011e-01  1.6011575507810241e-01  3.5432019162520845e-01  4.9747894021951489e-01  5.3471665715250660e-01  9.6173366511173830e-01  9.3929694267289632e-01  9.9884198987616979e-01  1.0011751921279575e+00  9.8879298607615118e-01  9.8448349823458392e-01  1.0034280126316872e+00  1.0056095938931038e+00  9.8953190411927749e-01  9.8486028136185877e-01  5.1297280195997796e-01  5.4707489017434496e-01  3.8326435924983748e-01  1.0078159578203181e+00  1.0098378824967273e+00  1.0072121644799106e+00  1.0112461660409759e+00  1.0081914256914015e+00  1.0119871251791384e+00  1.0084806158978898e+00  5.2736701147410259e-01  5.5881287