<?xml version="1.0"?>
<VTKFile type="UnstructuredGrid"  version="0.1"  >
<UnstructuredGrid>
<Piece  NumberOfPoints="22947" NumberOfCells="45411">
<Points>
<DataArray  type="Float64"  NumberOfComponents="3"  format="ascii">0 0 0  5 0 0  5 1 0  0 1 0  1.5 0.2 0  1.3 0.6 0  1.7 0.6 0  0.09988181715350253 0 0  0.1997636343069831 0 0  0.2996454514604577 0 0  0.3995272686139624 0 0  0.4994090857674671 0 0  0.5992909029209642 0 0  0.6991727200743116 0 0  0.7977480796387948 0 0  0.8833077882008854 0 0  0.9552465290058831 0 0  1.015928428880551 0 0  1.06737033859586 0 0  1.111317272793253 0 0  1.14931422653285 0 0  1.182777857033489 0 0  1.213067364367625 0 0  1.241543873852857 0 0  1.269517245850398 0 0  1.297484154653317 0 0  1.325451063456236 0 0  1.353417972259155 0 0  1.381384881062075 0 0  1.409351789864994 0 0  1.437318698667913 0 0  1.465285607470832 0 0  1.493252516273751 0 0  1.521219425076671 0 0  1.54918633387959 0 0  1.577153242682509 0 0  1.605120151485428 0 0  1.633087060288348 0 0  1.661053969091267 0 0  1.689020877894186 0 0  1.716987786697105 0 0  1.744954695500025 0 0  1.772921604302944 0 0  1.800888513105863 0 0  1.828855421908782 0 0  1.856822330711702 0 0  1.884789239514621 0 0  1.91275614831754 0 0  1.940723057120459 0 0  1.968689965923379 0 0  1.996656874726308 0 0  2.02462378352929 0 0  2.052590692332318 0 0  2.080557601135361 0 0  2.108524509938404 0 0  2.136491418741448 0 0  2.164458327544491 0 0  2.192425236347535 0 0  2.220392145150578 0 0  2.248359053953621 0 0  2.276325962756665 0 0  2.304292871559708 0 0  2.332259780362751 0 0  2.360226689165795 0 0  2.388193597968838 0 0  2.416160506771881 0 0  2.444127415574925 0 0  2.472094324377968 0 0  2.500061233181011 0 0  2.528028141984055 0 0  2.555995050787098 0 0  2.583961959590142 0 0  2.611928868393185 0 0  2.639895777196228 0 0  2.667862685999272 0 0  2.695829594802315 0 0  2.723796503605358 0 0  2.751763412408402 0 0  2.779730321211445 0 0  2.807697230014488 0 0  2.835664138817531 0 0  2.863631047620574 0 0  2.891597956423618 0 0  2.919564865226662 0 0  2.947531774029705 0 0  2.975498682832749 0 0  3.003466037710658 0 0  3.031764566682743 0 0  3.061630572857904 0 0  3.094429607623581 0 0  3.13021238288224 0 0  3.166169837057582 0 0  3.202127291232924 0 0  3.238084745408265 0 0  3.274042199583607 0 0  3.309999653758949 0 0  3.34595710793429 0 0  3.381914562109632 0 0  3.417872016284973 0 0  3.453829470460315 0 0  3.489786924635657 0 0  3.525744378810998 0 0  3.56170183298634 0 0  3.597659287161681 0 0  3.633616741337023 0 0  3.669574195512365 0 0  3.705531649687707 0 0  3.741489103863048 0 0  3.77744655803839 0 0  3.813404012213732 0 0  3.849361466389073 0 0  3.885318920564415 0 0  3.921276374739756 0 0  3.957233828915097 0 0  3.993191283090439 0 0  4.02914873726578 0 0  4.065106191441122 0 0  4.101063645616464 0 0  4.137021099791806 0 0  4.172978553967147 0 0  4.208936008142489 0 0  4.24489346231783 0 0  4.280850916493172 0 0  4.316808370668514 0 0  4.352765824843855 0 0  4.388723279019197 0 0  4.424680733194538 0 0  4.46063818736988 0 0  4.496595641545222 0 0  4.532553095720563 0 0  4.568510549895905 0 0  4.604468004071246 0 0  4.640425458246588 0 0  4.676382912421929 0 0  4.712340366597271 0 0  4.748297820772613 0 0  4.784255274947953 0 0  4.820212729123295 0 0  4.856170183298635 0 0  4.892127637473977 0 0  4.928085091649318 0 0  4.964042545824659 0 0  5 0.0328500670419322 0  5 0.06090401573905966 0  5 0.08486207734983149 0  5 0.1054388876402908 0  5 0.1251669432582367 0  5 0.1448949988761606 0  5 0.1646230544940819 0  5 0.1843511101120033 0  5 0.2040791657299246 0  5 0.2238072213478459 0  5 0.2435352769657672 0  5 0.2632633325836884 0  5 0.2829913882016097 0  5 0.3027194438195311 0  5 0.3224474994374524 0  5 0.3421755550553737 0  5 0.3619036106732951 0  5 0.3816316662912164 0  5 0.4013597219091377 0  5 0.421087777527059 0  5 0.4408158331449803 0  5 0.4605438887629016 0  5 0.4802719443808229 0  5 0.4999999999987551 0  5 0.519728055616775 0  5 0.5394561112348057 0  5 0.5591841668528366 0  5 0.5789122224708674 0  5 0.5986402780888981 0  5 0.6183683337069288 0  5 0.6380963893249596 0  5 0.6578244449429903 0  5 0.6775525005610212 0  5 0.6972805561790519 0  5 0.7170086117970828 0  5 0.7367366674151135 0  5 0.7564647230331443 0  5 0.776192778651175 0  5 0.7959208342692058 0  5 0.8156488898872365 0  5 0.8353769455052672 0  5 0.855105001123298 0  5 0.8748330567413287 0  5 0.8945611123593595 0  5 0.9151379226498687 0  5 0.9390959842606995 0  5 0.9671499329579316 0  4.964042545824707 1 0  4.928085091649415 1 0  4.892127637474122 1 0  4.856170183298829 1 0  4.820212729123536 1 0  4.784255274948244 1 0  4.748297820772951 1 0  4.712340366597658 1 0  4.676382912422365 1 0  4.640425458247072 1 0  4.604468004071779 1 0  4.568510549896486 1 0  4.532553095721194 1 0  4.496595641545901 1 0  4.460638187370608 1 0  4.424680733195316 1 0  4.388723279020023 1 0  4.35276582484473 1 0  4.316808370669437 1 0  4.280850916494145 1 0  4.244893462318852 1 0  4.208936008143559 1 0  4.172978553968266 1 0  4.137021099792974 1 0  4.101063645617681 1 0  4.065106191442388 1 0  4.029148737267096 1 0  3.993191283091803 1 0  3.95723382891651 1 0  3.921276374741217 1 0  3.885318920565925 1 0  3.849361466390632 1 0  3.813404012215339 1 0  3.777446558040046 1 0  3.741489103864753 1 0  3.705531649689461 1 0  3.669574195514167 1 0  3.633616741338875 1 0  3.597659287163582 1 0  3.561701832988289 1 0  3.525744378812996 1 0  3.489786924637703 1 0  3.45382947046241 1 0  3.417872016287117 1 0  3.381914562111825 1 0  3.345957107936532 1 0  3.309999653761239 1 0  3.274042199585946 1 0  3.238084745410653 1 0  3.20212729123536 1 0  3.166169837060067 1 0  3.130212382884775 1 0  3.094429607626076 1 0  3.061630572860181 1 0  3.031764566684895 1 0  3.00346603771278 1 0  2.97549868283491 1 0  2.947531774031904 1 0  2.919564865228899 1 0  2.891597956425894 1 0  2.863631047622888 1 0  2.835664138819883 1 0  2.807697230016877 1 0  2.779730321213872 1 0  2.751763412410866 1 0  2.723796503607861 1 0  2.695829594804855 1 0  2.66786268600185 1 0  2.639895777198844 1 0  2.611928868395839 1 0  2.583961959592834 1 0  2.555995050789828 1 0  2.528028141986823 1 0  2.500061233183817 1 0  2.472094324380812 1 0  2.444127415577806 1 0  2.416160506774801 1 0  2.388193597971795 1 0  2.36022668916879 1 0  2.332259780365785 1 0  2.304292871562779 1 0  2.276325962759774 1 0  2.248359053956768 1 0  2.220392145153763 1 0  2.192425236350757 1 0  2.164458327547752 1 0  2.136491418744747 1 0  2.108524509941741 1 0  2.080557601138736 1 0  2.05259069233573 1 0  2.024623783532725 1 0  1.99665687472972 1 0  1.968689965926714 1 0  1.940723057123709 1 0  1.912756148320703 1 0  1.884789239517698 1 0  1.856822330714692 1 0  1.828855421911687 1 0  1.800888513108681 1 0  1.772921604305676 1 0  1.74495469550267 1 0  1.716987786699665 1 0  1.68902087789666 1 0  1.661053969093654 1 0  1.633087060290649 1 0  1.605120151487644 1 0  1.577153242684639 1 0  1.549186333881632 1 0  1.521219425078627 1 0  1.493252516275621 1 0  1.465285607472617 1 0  1.437318698669611 1 0  1.409351789866606 1 0  1.3813848810636 1 0  1.353417972260594 1 0  1.32545106345759 1 0  1.297484154654584 1 0  1.269517245851579 1 0  1.241543873853952 1 0  1.213067364368676 1 0  1.182777857034534 1 0  1.149314226533915 1 0  1.111317272794346 1 0  1.067370338596986 1 0  1.015928428881706 1 0  0.9552465290070451 1 0  0.8833077882020213 1 0  0.7977480796398604 1 0  0.6991727200751363 1 0  0.5992909029215436 1 0  0.4994090857679536 1 0  0.3995272686143618 1 0  0.2996454514607718 1 0  0.1997636343071827 1 0  0.09988181715359001 1 0  0 0.8999999999995836 0  0 0.7999999999999998 0  0 0.7000000000006934 0  0 0.6000000000013869 0  0 0.5000000000020587 0  0 0.4000000000016644 0  0 0.3000000000012483 0  0 0.2000000000008322 0  0 0.100000000000416 0  1.699751384242739 0.6099691771530924 0  1.699006155066563 0.6199135693842884 0  1.697766165232479 0.6298084533184788 0  1.696034497548046 0.6396292287470388 0  1.693815457209259 0.649351479681627 0  1.691114561101324 0.6589510350634165 0  1.687938524092297 0.6684040288434037 0  1.684295242284711 0.6776869594669508 0  1.680193773487681 0.6867767480162182 0  1.67564431456081 0.6956507959321996 0  1.670658176173392 0.7042870409263378 0  1.665247754668492 0.7126640118983073 0  1.659426501197733 0.720760882390984 0  1.653208888346202 0.7285575222681306 0  1.646610374031267 0.7360345479149025 0  1.639647363235856 0.7431733702239103 0  1.632337167092531 0.7499562409702357 0  1.62469795989353 0.756366296874971 0  1.616748733919558 0.7623876015223461 0  1.608509252208739 0.7680051849946904 0  1.599999999406289 0.7732050810996667 0  1.591242130860608 0.7779743620750351 0  1.582257419988525 0.7823011707500295 0  1.573068204170437 0.7861747500046861 0  1.563697329302744 0.7895854694846042 0  1.554168092871136 0.7925248496031199 0  1.544504185999879 0.7949855826169927 0  1.534729634727922 0.7969615507444667 0  1.524868740094186 0.7984478414247124 0  1.514946017836289 0.7994407595022575 0  1.504986137413824 0.7999378364234504 0  1.495013860716175 0.7999378363768156 0  1.485053980351481 0.7994407593664496 0  1.475131258156531 0.7984478412054987 0  1.465270363613604 0.7969615504520329 0  1.4554958123743 0.7949855822459098 0  1.445831905597438 0.7925248491722436 0  1.436302669250897 0.7895854689986533 0  1.426931794485273 0.786174749477091 0  1.417742578777908 0.7823011701934227 0  1.408757867959409 0.7779743614700931 0  1.399999999478033 0.7732050804555297 0  1.391490746737941 0.7680051843143844 0  1.383251265066765 0.7623876007935619 0  1.375302039213222 0.7563662961626294 0  1.367662832117841 0.7499562402733849 0  1.360352636037667 0.7431733695153243 0  1.353389625336735 0.736034547233771 0  1.346791111115898 0.7285575216270866 0  1.340573498342716 0.7207608817842938 0  1.33475224496031 0.7126640113538593 0  1.329341823531611 0.7042870404435957 0  1.324355685207748 0.6956507955072012 0  1.319806226317615 0.6867767476119111 0  1.315704757542792 0.6
[...]
<PointData  Scalars="Pressure"> 
<DataArray  type="Float64"  Name="Pressure"  format="ascii">9.8415499749207325e-01  0.0000000000000000e+00  0.0000000000000000e+00  9.7685277902681866e-01  -4.3702873411008231e-01  1.0011530673814553e+00  -5.8102129991387663e-01  9.3431797953705065e-01  9.3102781731659079e-01  9.1715064575931027e-01  9.1473398074687995e-01  9.1007771310084484e-01  9.0775197608577185e-01  9.0548749566809950e-01  9.0354694465481133e-01  9.0081485455127530e-01  8.9740322633686909e-01  8.9277733735273457e-01  8.8664566915463594e-01  8.7898532751116010e-01  8.6994624217424266e-01  8.5950136358849849e-01  8.4707870249137118e-01  8.3226394390197023e-01  8.1399164296202109e-01  7.9090514951638180e-01  7.6208644879247556e-01  7.2549117111011185e-01  6.8073107494501350e-01  6.2569572013130703e-01  5.5947316673647496e-01  4.8386681492724359e-01  3.9837204862116254e-01  3.0939099519363816e-01  2.1894644322710788e-01  1.3362992185352818e-01  5.5886783206186029e-02  -1.1469025672143258e-02  -6.8656958268095120e-02  -1.1524927484865383e-01  -1.5276629998684998e-01  -1.8354445632226840e-01  -2.0674937448018926e-01  -2.2560840505566881e-01  -2.3854104040372046e-01  -2.4677248835003601e-01  -2.5060085033130092e-01  -2.5073517054766442e-01  -2.4566540234261017e-01  -2.3735128652859946e-01  -2.2515537381664391e-01  -2.1055810925478274e-01  -1.9412331692708762e-01  -1.7737868039668439e-01  -1.6087765048320146e-01  -1.4566418761195057e-01  -1.3204264827099543e-01  -1.2017916203238668e-01  -1.0982022768887378e-01  -1.0072452642868114e-01  -9.2657490678792420e-02  -8.6373377335052445e-02  -8.2490658047347454e-02  -8.1102743154881501e-02  -8.2116927999523429e-02  -8.4993909365113043e-02  -8.9164425529990585e-02  -9.3979563461178570e-02  -9.8514774767740398e-02  -1.0195238131333102e-01  -1.0376417833828445e-01  -1.0306101630993272e-01  -1.0009555073618727e-01  -9.4429723515414316e-02  -8.6554811589557426e-02  -7.6921741728606483e-02  -6.6161064315287330e-02  -5.4973547350772305e-02  -4.3752207595893745e-02  -3.3037652648420408e-02  -2.3074197735004541e-02  -1.4078491703317389e-02  -6.1337692608865318e-03  7.1877767632470293e-04  6.7022811477544424e-03  1.1709811454018072e-02  1.5955847875699498e-02  1.9458668626822006e-02  2.2523465192403051e-02  2.5237552515267096e-02  2.7502546819771746e-02  2.9247191823257423e-02  3.0481633285894802e-02  3.1372124756749081e-02  3.1979097519695167e-02  3.2344967739231775e-02  3.2485709757025902e-02  3.2493049727361077e-02  3.2390703369761069e-02  3.2128900362938695e-02  3.1821565549706700e-02  3.1418908014237454e-02  3.0951229724045223e-02  3.0451854216432921e-02  2.9886934824735180e-02  2.9291884629732000e-02  2.8679726816092273e-02  2.8007374376831585e-02  2.7349366355125700e-02  2.6648149610041503e-02  2.5921978362680967e-02  2.5208373901867046e-02  2.4464380131601696e-02  2.3713780775571843e-02  2.2954928723882620e-02  2.2187925189586843e-02  2.1421736508970585e-02  2.0636783335716790e-02  1.9864540171725179e-02  1.9071034560313369e-02  1.8279928155900235e-02  1.7500769674943507e-02  1.6701012339752564e-02  1.5915351343900944e-02  1.5101506729597926e-02  1.4311831601165347e-02  1.3519264621401260e-02  1.2694138235328155e-02  1.1905408480107833e-02  1.1083167377092921e-02  1.0276350316587090e-02  9.4604518537112613e-03  8.6393607773130581e-03  7.8100982456582729e-03  6.9791341082452033e-03  6.1387973909587017e-03  5.2885663637674768e-03  4.4341953177824698e-03  3.5499143225072409e-03  2.6728323834614631e-03  1.7573337136834726e-03  8.2192051616093514e-04  0.0000000000000000e+00  0.0000000000000000e+00  0.0000000000000000e+00  0.0000000000000000e+00  0.0000000000000000e+00  0.0000000000000000e+00  0.0000000000000000e+00  0.0000000000000000e+00  0.0000000000000000e+00  0.0000000000000000e+00  0.0000000000000000e+00  0.0000000000000000e+00  0.0000000000000000e+00  0.0000000000000000e+00  0.0000000000000000e+00  0.0000000000000000e+00  0.0000000000000000e+00  0.0000000000000000e+00  0.0000000000000000e+00  0.0000000000000000e+00  0.0000000000000000e+00  0.0000000000000000e+00  0.0000000000000000e+00  0.0000000000000000e+00  0.0000000000000000e+00  0.0000000000000000e+00  0.0000000000000000e+00  0.0000000000000000e+00  0.0000000000000000e+00  0.0000000000000000e+00  0.0000000000000000e+00  0.0000000000000000e+00  0.0000000000000000e+00  0.0000000000000000e+00  0.0000000000000000e+00  0.0000000000000000e+00  0.0000000000000000e+00  0.0000000000000000e+00  0.0000000000000000e+00  0.0000000000000000e+00  0.0000000000000000e+00  0.0000000000000000e+00  0.0000000000000000e+00  0.0000000000000000e+00  0.0000000000000000e+00  0.0000000000000000e+00  0.0000000000000000e+00  8.7225488668309006e-04  1.6172394933943852e-03  2.3703826608642235e-03  3.1499599954320197e-03  3.9475659974417699e-03  4.7288521022561432e-03  5.5363958859900543e-03  6.3466756837627647e-03  7.1680552868578938e-03  7.9695022057191794e-03  8.8043361824270260e-03  9.6253800629356855e-03  1.0461908773524766e-02  1.1278350853062780e-02  1.2122438377198242e-02  1.2958783665420123e-02  1.3797898930594249e-02  1.4636971521089864e-02  1.5471368459868245e-02  1.6322557073970855e-02  1.7160644037947866e-02  1.8020344646313805e-02  1.8860812982814439e-02  1.9720883841101395e-02  2.0571269132237242e-02  2.1438321898438313e-02  2.2303772397682557e-02  2.3182080169914979e-02  2.4056698907950029e-02  2.4966725296343629e-02  2.5854671093979580e-02  2.6763615798410079e-02  2.7695297597175587e-02  2.8652332932861138e-02  2.9609658501273450e-02  3.0597054879140287e-02  3.1617067532865910e-02  3.2684473564368467e-02  3.3754815241510069e-02  3.4882742802272465e-02  3.6076180278202592e-02  3.7308889515595536e-02  3.8616171091545762e-02  4.0005520377048388e-02  4.1467729223581565e-02  4.3035524844654081e-02  4.4712083858645439e-02  4.6511586281590557e-02  4.8443961900124025e-02  5.0520120862298505e-02  5.2737628639904541e-02  5.5110032345986423e-02  5.7619603994435942e-02  6.0009790898063263e-02  6.2245414346802065e-02  6.4364427785845460e-02  6.6402660198873587e-02  6.8311605877110604e-02  6.9946623072969186e-02  7.1193615965508550e-02  7.1753072923408739e-02  7.1375850299840102e-02  6.9648004773914196e-02  6.6070393698280355e-02  6.0013673381153786e-02  5.0747554323778275e-02  3.7518184374221733e-02  1.9326259646339123e-02  -3.7927046033892752e-03  -3.2615795065515270e-02  -6.6206793949055917e-02  -1.0326857307085038e-01  -1.4202184122219796e-01  -1.7952888907904485e-01  -2.1354173793017281e-01  -2.4065341613900806e-01  -2.6076564088626669e-01  -2.7194406285828998e-01  -2.7548632039622928e-01  -2.7235877242697398e-01  -2.6491289370960452e-01  -2.5498762646313922e-01  -2.4451553312284072e-01  -2.3479447356779029e-01  -2.2712833004021024e-01  -2.2245985120572515e-01  -2.2100573727423548e-01  -2.2254600913020975e-01  -2.2649290733215016e-01  -2.3212625335926412e-01  -2.3911126413087175e-01  -2.4786487654914241e-01  -2.5848383115174750e-01  -2.7085006919311083e-01  -2.8493869206360933e-01  -3.0045537796692040e-01  -3.1699369893138268e-01  -3.3401930924131562e-01  -3.5056474659193321e-01  -3.6706098968295747e-01  -3.8114137590059977e-01  -3.9337386623747800e-01  -4.0068257500062393e-01  -4.0368139806383335e-01  -3.9898987375458533e-01  -3.8441741176582889e-01  -3.5675399605342273e-01  -3.1916002931972853e-01  -2.6209333410584545e-01  -1.9268650350608749e-01  -1.0861640331005358e-01  -1.4912424528751980e-02  8.4388485973020594e-02  1.8441957209108537e-01  2.8148617621476746e-01  3.7048568022361095e-01  4.5022675168745380e-01  5.1974926982783032e-01  5.8067272925296931e-01  6.3173634167171100e-01  6.7638925242703940e-01  7.1739409733344317e-01  7.5242853589758263e-01  7.8491838025580785e-01  8.1083813072770283e-01  8.3396131953934982e-01  8.5156703741067785e-01  8.6608603768111048e-01  8.7826382006255277e-01  8.8624391960996796e-01  8.9414065193511760e-01  9.0195112002948485e-01  9.0667215854381999e-01  9.2264096431122866e-01  9.2647211924351125e-01  9.4468918904911992e-01  9.2734480359665672e-01  9.2329061717460259e-01  9.2171686325481705e-01  9.2199708265730285e-01  9.2379169008924300e-01  9.2748837239618986e-01  9.3274739500376314e-01  9.5176459307153771e-01  -6.2324165814693888e-01  -5.9979045804998921e-01  -5.9122222783392575e-01  -5.8004284957181251e-01  -5.6960570345415729e-01  -5.6004050096606384e-01  -5.5149632552434469e-01  -5.4405501943073042e-01  -5.3799611747234499e-01  -5.3379469906102750e-01  -5.3209874747140884e-01  -5.3326598486048271e-01  -5.3728548390784348e-01  -5.4379906875044748e-01  -5.5226790806765835e-01  -5.6242290032287134e-01  -5.7417986130429133e-01  -5.8762238737511019e-01  -6.0356989377060566e-01  -6.2217314141060731e-01  -6.4351930160326376e-01  -6.6766214395895418e-01  -6.9404278347037329e-01  -7.2218822446158881e-01  -7.5096410741033415e-01  -7.7954018438749795e-01  -8.0603190104569711e-01  -8.2874065382066353e-01  -8.4621476213357305e-01  -8.5720185607871258e-01  -8.5990375168512601e-01  -8.5380277452252107e-01  -8.3755523736604809e-01  -8.1154074821046929e-01  -7.7586925700057008e-01  -7.3052443225544705e-01  -6.7688091730287625e-01  -6.1584481995386242e-01  -5.4738142417104751e-01  -4.7432239920086344e-01  -3.9702891729372441e-01  -3.1573561520701687e-01  -2.3231331313201631e-01  -1.4895725724424105e-01  -6.3292440160214486e-02  2.0252915058645318e-02  1.0414240579034514e-01  1.8586852823673181e-01  2.6447389537318594e-01  3.4070892812715492e-01  4.1431938478516916e-01  4.8402231972794851e-01  5.4970632917584283e-01  6.1229705600202400e-01  6.7034616381218937e-01  7.2402947385637761e-01  7.7345129757167486e-01  8.1865973856969942e-01  8.5910589111343305e-01  8.9497391523477299e-01  9.2809255462130358e-01  9.4802171460202189e-01  1.0399726801774845e+00  1.0418084091169668e+00  1.0476302128979955e+00  1.0503878006672667e+00  1.0517151810802676e+00  1.0518816053956235e+00  1.0511570471874618e+00  1.0497651813486759e+00  1.0477425802634819e+00  1.0452075765813331e+00  1.0422131876535685e+00  1.0387937960149065e+00  1.0349860404964899e+00  1.0308017866950026e+00  1.0262547279468999e+00  1.0213406908164757e+00  1.0160578684599930e+00  1.0103955688618984e+00  1.0043374279168249e+00  9.9788730836318873e-01  9.9093800807123111e-01  9.8356709220499317e-01  9.7564550846507780e-01  9.6719639697833781e-01  9.5808268362242122e-01  9.4831525948902129e-01  9.3775891097639530e-01  9.2631089979240266e-01  9.1392265924026850e-01  9.0041660376062693e-01  8.8562491954919287e-01  8.6932627291210762e-01  8.5125730853552140e-01  8.3108797595929940e-01  8.0839614583511521e-01  7.8263360281338068e-01  7.5299438514613792e-01  7.1851037463439837e-01  6.7777447746464659e-01  6.2849662481282931e-01  5.6724245355025682e-01  4.8753931736484835e-01  3.7545522491317718e-01  2.5067404319368336e-01  -4.0614691627083976e-01  -3.0718408778127548e-01  -2.9009671500140954e-01  -2.7702504509625414e-01  -2.6880872632110003e-01  -2.6313211100273870e-01  -2.5891366654910464e-01  -2.5573544033480716e-01  -2.5328802894053920e-01  -2.5135329241556115e-01  -2.4976735929504185e-01  -2.4839905528738654e-01  -2.4714851926387760e-01  -2.4594437293886590e-01  -2.4473679256011324e-01  -2.4349720690942567e-01  -2.4221039663160354e-01  -2.4087855919271567e-01  -2.3951408595611717e-01  -2.3814361087331176e-01  -2.3680835174780626e-01  -2.3556186371581278e-01  -2.3448191590536982e-01  -2.3366267564177945e-01  -2.3321777159121040e-01  -2.3329733490574298e-01  -2.3406230709407672e-01  -2.3569681785776489e-01  -2.3842857137325882e-01  -2.4244975265887186e-01  -2.4801482204009465e-01  -2.5530694881810156e-01  -2.6457520764292131e-01  -2.7594362797908073e-01  -2.8957895314847715e-01  -3.0556701516653828e-01  -3.2390889141738100e-01  -3.4461329502357002e-01  -3.6753089954742330e-01  -3.9265269784953877e-01  -4.1973713317801004e-01  -4.4878436217426876e-01  -4.8083011847738583e-01  -5.0711619332381730e-01  -5.0289216875352649e-01  -3.1815439026358838e-01  -2.4256384505752923e-01  -5.9145412289752997e-01  -1.2321760937902851e-01  -2.2358869684968966e-01  -2.3483430907296277e-01  -2.4175303394525799e-01  4.1064206827282507e-04  -5.6909618127009320e-01  -5.4051268394693741e-01  6.7166903296685926e-02  -2.8762825998865163e-02  2.6041669790248044e-02  -1.0263539377523687e-01  -2.6715277939677362e-01  -8.1265857209022296e-02  1.3723444319559746e-02  -1.9957394871011955e-01  1.0178825995522551e+00  1.0447729802001799e+00  1.0307894073142065e+00  9.7738600519357988e-01  9.1809509998386929e-01  3.8936020624311021e-04  -8.2761255292902028e-02  7.0242255675877913e-02  -1.2380484465821848e-01  5.5851496231531648e-02  1.1578136444871935e-02  1.0871260003661216e-02  4.2753423942591429e-04  -2.3486798424295982e-01  8.3811260355303152e-01  6.9090731189960997e-01  2.5400693896860355e-01  -2.4825667391213105e-01  -2.5866407755755028e-01  -3.0334724015988007e-01  3.8097973856632359e-04  3.1570606641409475e-02  4.0680424310548198e-02  3.1143370285053502e-02  3.1216535896820313e-02  2.6241976156096011e-02  2.3603692591803917e-02  2.0197641480970387e-02  1.6767264370340644e-02  1.5532853343668187e-02  -2.4784402999120056e-01  9.3851378593516965e-01  7.9185983006476313e-01  5.8293812348204910e-01  -5.3639861175338022e-01  -2.7359154772640332e-01  3.9839325872641869e-04  8.6319938255848294e-01  7.5486967947489504e-03  8.1081100379164772e-03  -2.1440517711152762e-01  3.0105214928752966e-01  2.6037809402540552e-02  -2.5740395718519143e-01  2.3381456583957485e-02  2.8941674123957813e-02  3.2389888671323655e-02  2.0115975154322448e-02  3.5576951618887881e-02  4.7507182085621283e-02  2.7297212240168397e-02  1.0494745100817457e+00  3.8652268393715169e-04  4.3244302815112566e-04  8.9506481006472394e-01  -5.6767628827695205e-01  -2.2768808571049251e-02  8.0092415285483165e-01  8.5829938808332928e-01  -3.3900371980833915e-01  -6.0627693402967375e-01  -2.7160410708492166e-01  -6.7482366268544636e-01  -7.5501391209173585e-01  -8.2647290235431414e-01  -8.4634561464767066e-01  -7.8415499362223229e-01  -6.3978136186085599e-01  7.6487414512956731e-01  -8.6860918909795581e-02  6.5464772354048106e-01  -3.8250814326613053e-01  7.0039657982750780e-01  4.7893955524131931e-01  4.8681911259613065e-03  4.1747734452610413e-03  -9.0338990718379669e-02  -9.6362964535163312e-02  -3.0259236767688959e-03  1.7965534468470479e-02  1.3281346608383550e-02  1.0294803344629615e-01  -4.0970360515093418e-01  -2.7330820500688446e-01  -2.3506204973594078e-01  9.5167652320914542e-01  -2.3784046922554614e-01  1.0316667563597983e+00  1.0003613803213232e+00  3.6762039621121529e-04  4.0247892204913177e-04  4.0092104223750494e-04  3.5390372622484093e-04  9.0463169738060445e-01  -3.9753590616882917e-01  2.2195739077835197e-01  8.9173327569145078e-01  5.0779934721288411e-01  -3.3839822542542747e-01  9.2238917369698947e-01  -6.2222218800318585e-02  4.4206250724555189e-04  9.1291380262511845e-01  8.2415346998659011e-01  -5.5333482085391184e-01  -5.4839706093666263e-01  -5.3394068161724328e-01  -5.8756773280621033e-01  6.9725959249158997e-01  -4.3969018451277642e-01  1.4809205750603063e-01  8.7322416396523383e-01  4.5044610210597091e-01  8.8262856594496808e-01  1.9238037801231277e-03  6.1080523782149947e-02  2.1060851368247365e-02  8.3830178584222259e-01  -1.6415011895811243e-01  -2.2566889218975750e-01  -6.1830701059040503e-02  -8.2806086722502295e-02  -1.0179807838562510e-01  -2.2412836753600737e-01  7.0450815723629517e-02  -2.3818611931857170e-01  6.2525997960557009e-02  -5.1165628763926746e-02  -3.0414105107879502e-01  -2.2625570936674608e-01  -2.2636211392399172e-01  -2.7308568458833926e-01  -2.4936788646350563e-01  -1.6899161510781877e-01  -2.4038619200434372e-01  2.5300516775680609e-01  2.1722074014924216e-02  3.2368740840468535e-02  1.3091392358876353e-02  3.0169445359425288e-02  2.4888385555933184e-02  9.8287014910805291e-03  2.7766373599714168e-02  2.9843194649872177e-02  3.1974194710585623e-02  3.1622752257729992e-03  6.5916837815376906e-03  5.1696067920211364e-02  3.8027513918305007e-02  9.0765356272013986e-03  1.8359313531311219e-02  2.9049230394354645e-02  3.3179872146314869e-02  4.3922365263008294e-02  5.8349054276816449e-03  1.5111259909251511e-02  2.1995046447088301e-02  2.5405714043498194e-02  9.0718741837888528e-01  9.2168858787835661e-01  -3.5956579433038821e-01  -2.5428427570058876e-01  8.9079503015014427e-01  7.9179919901145190e-01  5.8599225476754857e-01  1.0391652250892074e+00  -2.7499397852610852e-01  1.0486277681805325e+00  1.0451354096546188e+00  -3.8247241242949337e-01  -3.6477317999074033e-01  -3.0619855089111991e-01  -2.4494870783040612e-01  -2.7564073370276698e-01  -1.9221518048113553e-01  -1.2320057787549339e-01  -1.1291749916830379e-02  -2.5040694171239715e-03  1.0591659579098071e-01  1.0390880739107956e-01  1.9321437765260716e-01  1.9227901634303587e-02  1.8443268856114772e-01  2.6014921075762548e-01  2.7909303584934370e-01  3.3077923115468616e-01  3.5619487233668135e-01  3.9562784136319329e-01  4.2332719350593212e-01  4.5298898032702029e-01  4.8082820382160613e-01  5.0299193929475960e-01  5.2993821035021538e-01  5.4654235572822540e-01  5.7200481344593102e-01  5.8449069612906546e-01  6.0822340118399110e-01  5.9876211043312544e-01  6.3269644790496338e-01  6.2620967485779155e-01  6.5744467004307905e-01  6.6194009494685946e-01  6.8431393084931125e-01  6.8200939784462888e-01  7.0638428820295962e-01  7.0599042318326610e-01  7.2786785113015118e-01  7.2756277199977770e-01  7.4693028143337048e-01  7.4854587843628162e-01  7.6557562010397062e-01  7.6826716804257733e-01  7.8338870110913017e-01  7.8694154841189945e-01  8.0030299676450045e-01  7.9673679745971471e-01  8.1213540340179313e-01  8.1628719168667963e-01  8.2673055620388802e-01  8.3133869918273962e-01  8.4051663621141570e-01  8.4547440297077170e-01  8.5350661415934770e-01  8.4869754351164473e-01  8.6066966466278660e-01  8.6572341761944327e-01  8.7196060268470654e-01  8.7719126493086119e-01  8.8259234389630603e-01  8.8794959709314203e-01  8.9257729694400201e-01  8.9802805768151439e-01  9.0196265700917078e-01  9.0746187679366386e-01  9.1076278740570560e-01  9.1628753555538256e-01  9.1900063141467370e-01  9.2453394777173759e-01  9.2662629382006945e-01  9.2133552470197277e-01  9.3221829358132324e-01  9.3378823099658503e-01  9.3938335060376243e-01  9.4060728616738931e-01  9.4608717077827764e-01  9.4687772478881083e-01  9.5228753167028801e-01  9.5277940356026691e-01  9.5805469035102886e-01  9.5793293746894492e-01  8.8737264838946706e-01  9.4741719885093334e-01  9.5775554745603353e-01  9.6343445028071562e-01  9.3019382842808618e-01  9.6325396930734963e-01  9.6884641369747548e-01  8.9356770481110703e-01  9.6875725015694947e-01  9.7426602668739892e-01  9.7423769237396374e-01  9.7965626259240757e-01  9.7931872570343081e-01  9.8461634375409723e-01  9.8393378846296775e-01  9.8913158655846967e-01  9.8811060231311953e-01  9.9320537212568649e-01  9.9196340482270451e-01  9.9686334472186899e-01  9.9524269039228974e-01  9.9824009171913053e-01  1.0017709510012383e+00  7.4609785817805174e-01  8.3646427204169604e-01  8.0856521141903803e-01  8.5598653166497363e-01  9.8498924542125987e-01  1.0031799578833382e+00  1.0065999490164856e+00  7.7179892403657868e-01  1.0080086587755746e+00  1.0113159712866762e+00  1.0095663720055224e+00  1.0141611580868248e+00  1.0120698032725837e+00  1.0165308365714913e+00  1.0140905399724307e+00  1.0184019358845386e+00  1.0156175834344119e+00  2.4820350351776185e-01  4.2901829962623428e-01  5.6191166584482410e-01  5.9637982617298857e-01  9.8733841758884111e-01  9.6834769438662671e-01  1.0208436934152967e+00  1.0225569531064822e+00  1.0126972383798003e+00  1.0090452570394899e+00  1.0249786737333282e+00  1.0265248995898726e+00  1.0136744880433628e+00  1.0096784078164378e+00  5.7612382158330500e-01  6.0764986383880037e-01  4.5607255430381455e-01  1.0289014326058319e+00  1.0302692885462401e+00  1.0274915198906085e+00  1.0310188358991415e+00  1.0278316825988003e+00  1.0310934760533534e+00  1.0274780717249670e+00  5.8929766299703723e-01  6.1833145100871179e-01  1.01421981209