<?xml version="1.0"?>
<VTKFile type="UnstructuredGrid"  version="0.1"  >
<UnstructuredGrid>
<Piece  NumberOfPoints="22947" NumberOfCells="45411">
<Points>
<DataArray  type="Float64"  NumberOfComponents="3"  format="ascii">0 0 0  5 0 0  5 1 0  0 1 0  1.5 0.2 0  1.3 0.6 0  1.7 0.6 0  0.09988181715350253 0 0  0.1997636343069831 0 0  0.2996454514604577 0 0  0.3995272686139624 0 0  0.4994090857674671 0 0  0.5992909029209642 0 0  0.6991727200743116 0 0  0.7977480796387948 0 0  0.8833077882008854 0 0  0.9552465290058831 0 0  1.015928428880551 0 0  1.06737033859586 0 0  1.111317272793253 0 0  1.14931422653285 0 0  1.182777857033489 0 0  1.213067364367625 0 0  1.241543873852857 0 0  1.269517245850398 0 0  1.297484154653317 0 0  1.325451063456236 0 0  1.353417972259155 0 0  1.381384881062075 0 0  1.409351789864994 0 0  1.437318698667913 0 0  1.465285607470832 0 0  1.493252516273751 0 0  1.521219425076671 0 0  1.54918633387959 0 0  1.577153242682509 0 0  1.605120151485428 0 0  1.633087060288348 0 0  1.661053969091267 0 0  1.689020877894186 0 0  1.716987786697105 0 0  1.744954695500025 0 0  1.772921604302944 0 0  1.800888513105863 0 0  1.828855421908782 0 0  1.856822330711702 0 0  1.884789239514621 0 0  1.91275614831754 0 0  1.940723057120459 0 0  1.968689965923379 0 0  1.996656874726308 0 0  2.02462378352929 0 0  2.052590692332318 0 0  2.080557601135361 0 0  2.108524509938404 0 0  2.136491418741448 0 0  2.164458327544491 0 0  2.192425236347535 0 0  2.220392145150578 0 0  2.248359053953621 0 0  2.276325962756665 0 0  2.304292871559708 0 0  2.332259780362751 0 0  2.360226689165795 0 0  2.388193597968838 0 0  2.416160506771881 0 0  2.444127415574925 0 0  2.472094324377968 0 0  2.500061233181011 0 0  2.528028141984055 0 0  2.555995050787098 0 0  2.583961959590142 0 0  2.611928868393185 0 0  2.639895777196228 0 0  2.667862685999272 0 0  2.695829594802315 0 0  2.723796503605358 0 0  2.751763412408402 0 0  2.779730321211445 0 0  2.807697230014488 0 0  2.835664138817531 0 0  2.863631047620574 0 0  2.891597956423618 0 0  2.919564865226662 0 0  2.947531774029705 0 0  2.975498682832749 0 0  3.003466037710658 0 0  3.031764566682743 0 0  3.061630572857904 0 0  3.094429607623581 0 0  3.13021238288224 0 0  3.166169837057582 0 0  3.202127291232924 0 0  3.238084745408265 0 0  3.274042199583607 0 0  3.309999653758949 0 0  3.34595710793429 0 0  3.381914562109632 0 0  3.417872016284973 0 0  3.453829470460315 0 0  3.489786924635657 0 0  3.525744378810998 0 0  3.56170183298634 0 0  3.597659287161681 0 0  3.633616741337023 0 0  3.669574195512365 0 0  3.705531649687707 0 0  3.741489103863048 0 0  3.77744655803839 0 0  3.813404012213732 0 0  3.849361466389073 0 0  3.885318920564415 0 0  3.921276374739756 0 0  3.957233828915097 0 0  3.993191283090439 0 0  4.02914873726578 0 0  4.065106191441122 0 0  4.101063645616464 0 0  4.137021099791806 0 0  4.172978553967147 0 0  4.208936008142489 0 0  4.24489346231783 0 0  4.280850916493172 0 0  4.316808370668514 0 0  4.352765824843855 0 0  4.388723279019197 0 0  4.424680733194538 0 0  4.46063818736988 0 0  4.496595641545222 0 0  4.532553095720563 0 0  4.568510549895905 0 0  4.604468004071246 0 0  4.640425458246588 0 0  4.676382912421929 0 0  4.712340366597271 0 0  4.748297820772613 0 0  4.784255274947953 0 0  4.820212729123295 0 0  4.856170183298635 0 0  4.892127637473977 0 0  4.928085091649318 0 0  4.964042545824659 0 0  5 0.0328500670419322 0  5 0.06090401573905966 0  5 0.08486207734983149 0  5 0.1054388876402908 0  5 0.1251669432582367 0  5 0.1448949988761606 0  5 0.1646230544940819 0  5 0.1843511101120033 0  5 0.2040791657299246 0  5 0.2238072213478459 0  5 0.2435352769657672 0  5 0.2632633325836884 0  5 0.2829913882016097 0  5 0.3027194438195311 0  5 0.3224474994374524 0  5 0.3421755550553737 0  5 0.3619036106732951 0  5 0.3816316662912164 0  5 0.4013597219091377 0  5 0.421087777527059 0  5 0.4408158331449803 0  5 0.4605438887629016 0  5 0.4802719443808229 0  5 0.4999999999987551 0  5 0.519728055616775 0  5 0.5394561112348057 0  5 0.5591841668528366 0  5 0.5789122224708674 0  5 0.5986402780888981 0  5 0.6183683337069288 0  5 0.6380963893249596 0  5 0.6578244449429903 0  5 0.6775525005610212 0  5 0.6972805561790519 0  5 0.7170086117970828 0  5 0.7367366674151135 0  5 0.7564647230331443 0  5 0.776192778651175 0  5 0.7959208342692058 0  5 0.8156488898872365 0  5 0.8353769455052672 0  5 0.855105001123298 0  5 0.8748330567413287 0  5 0.8945611123593595 0  5 0.9151379226498687 0  5 0.9390959842606995 0  5 0.9671499329579316 0  4.964042545824707 1 0  4.928085091649415 1 0  4.892127637474122 1 0  4.856170183298829 1 0  4.820212729123536 1 0  4.784255274948244 1 0  4.748297820772951 1 0  4.712340366597658 1 0  4.676382912422365 1 0  4.640425458247072 1 0  4.604468004071779 1 0  4.568510549896486 1 0  4.532553095721194 1 0  4.496595641545901 1 0  4.460638187370608 1 0  4.424680733195316 1 0  4.388723279020023 1 0  4.35276582484473 1 0  4.316808370669437 1 0  4.280850916494145 1 0  4.244893462318852 1 0  4.208936008143559 1 0  4.172978553968266 1 0  4.137021099792974 1 0  4.101063645617681 1 0  4.065106191442388 1 0  4.029148737267096 1 0  3.993191283091803 1 0  3.95723382891651 1 0  3.921276374741217 1 0  3.885318920565925 1 0  3.849361466390632 1 0  3.813404012215339 1 0  3.777446558040046 1 0  3.741489103864753 1 0  3.705531649689461 1 0  3.669574195514167 1 0  3.633616741338875 1 0  3.597659287163582 1 0  3.561701832988289 1 0  3.525744378812996 1 0  3.489786924637703 1 0  3.45382947046241 1 0  3.417872016287117 1 0  3.381914562111825 1 0  3.345957107936532 1 0  3.309999653761239 1 0  3.274042199585946 1 0  3.238084745410653 1 0  3.20212729123536 1 0  3.166169837060067 1 0  3.130212382884775 1 0  3.094429607626076 1 0  3.061630572860181 1 0  3.031764566684895 1 0  3.00346603771278 1 0  2.97549868283491 1 0  2.947531774031904 1 0  2.919564865228899 1 0  2.891597956425894 1 0  2.863631047622888 1 0  2.835664138819883 1 0  2.807697230016877 1 0  2.779730321213872 1 0  2.751763412410866 1 0  2.723796503607861 1 0  2.695829594804855 1 0  2.66786268600185 1 0  2.639895777198844 1 0  2.611928868395839 1 0  2.583961959592834 1 0  2.555995050789828 1 0  2.528028141986823 1 0  2.500061233183817 1 0  2.472094324380812 1 0  2.444127415577806 1 0  2.416160506774801 1 0  2.388193597971795 1 0  2.36022668916879 1 0  2.332259780365785 1 0  2.304292871562779 1 0  2.276325962759774 1 0  2.248359053956768 1 0  2.220392145153763 1 0  2.192425236350757 1 0  2.164458327547752 1 0  2.136491418744747 1 0  2.108524509941741 1 0  2.080557601138736 1 0  2.05259069233573 1 0  2.024623783532725 1 0  1.99665687472972 1 0  1.968689965926714 1 0  1.940723057123709 1 0  1.912756148320703 1 0  1.884789239517698 1 0  1.856822330714692 1 0  1.828855421911687 1 0  1.800888513108681 1 0  1.772921604305676 1 0  1.74495469550267 1 0  1.716987786699665 1 0  1.68902087789666 1 0  1.661053969093654 1 0  1.633087060290649 1 0  1.605120151487644 1 0  1.577153242684639 1 0  1.549186333881632 1 0  1.521219425078627 1 0  1.493252516275621 1 0  1.465285607472617 1 0  1.437318698669611 1 0  1.409351789866606 1 0  1.3813848810636 1 0  1.353417972260594 1 0  1.32545106345759 1 0  1.297484154654584 1 0  1.269517245851579 1 0  1.241543873853952 1 0  1.213067364368676 1 0  1.182777857034534 1 0  1.149314226533915 1 0  1.111317272794346 1 0  1.067370338596986 1 0  1.015928428881706 1 0  0.9552465290070451 1 0  0.8833077882020213 1 0  0.7977480796398604 1 0  0.6991727200751363 1 0  0.5992909029215436 1 0  0.4994090857679536 1 0  0.3995272686143618 1 0  0.2996454514607718 1 0  0.1997636343071827 1 0  0.09988181715359001 1 0  0 0.8999999999995836 0  0 0.7999999999999998 0  0 0.7000000000006934 0  0 0.6000000000013869 0  0 0.5000000000020587 0  0 0.4000000000016644 0  0 0.3000000000012483 0  0 0.2000000000008322 0  0 0.100000000000416 0  1.699751384242739 0.6099691771530924 0  1.699006155066563 0.6199135693842884 0  1.697766165232479 0.6298084533184788 0  1.696034497548046 0.6396292287470388 0  1.693815457209259 0.649351479681627 0  1.691114561101324 0.6589510350634165 0  1.687938524092297 0.6684040288434037 0  1.684295242284711 0.6776869594669508 0  1.680193773487681 0.6867767480162182 0  1.67564431456081 0.6956507959321996 0  1.670658176173392 0.7042870409263378 0  1.665247754668492 0.7126640118983073 0  1.659426501197733 0.720760882390984 0  1.653208888346202 0.7285575222681306 0  1.646610374031267 0.7360345479149025 0  1.639647363235856 0.7431733702239103 0  1.632337167092531 0.7499562409702357 0  1.62469795989353 0.756366296874971 0  1.616748733919558 0.7623876015223461 0  1.608509252208739 0.7680051849946904 0  1.599999999406289 0.7732050810996667 0  1.591242130860608 0.7779743620750351 0  1.582257419988525 0.7823011707500295 0  1.573068204170437 0.7861747500046861 0  1.563697329302744 0.7895854694846042 0  1.554168092871136 0.7925248496031199 0  1.544504185999879 0.7949855826169927 0  1.534729634727922 0.7969615507444667 0  1.524868740094186 0.7984478414247124 0  1.514946017836289 0.7994407595022575 0  1.504986137413824 0.7999378364234504 0  1.495013860716175 0.7999378363768156 0  1.485053980351481 0.7994407593664496 0  1.475131258156531 0.7984478412054987 0  1.465270363613604 0.7969615504520329 0  1.4554958123743 0.7949855822459098 0  1.445831905597438 0.7925248491722436 0  1.436302669250897 0.7895854689986533 0  1.426931794485273 0.786174749477091 0  1.417742578777908 0.7823011701934227 0  1.408757867959409 0.7779743614700931 0  1.399999999478033 0.7732050804555297 0  1.391490746737941 0.7680051843143844 0  1.383251265066765 0.7623876007935619 0  1.375302039213222 0.7563662961626294 0  1.367662832117841 0.7499562402733849 0  1.360352636037667 0.7431733695153243 0  1.353389625336735 0.736034547233771 0  1.346791111115898 0.7285575216270866 0  1.340573498342716 0.7207608817842938 0  1.33475224496031 0.7126640113538593 0  1.329341823531611 0.7042870404435957 0  1.324355685207748 0.6956507955072012 0  1.319806226317615 0.6867767476119111 0  1.315704757542792 0.6
[...]
<PointData  Scalars="Pressure"> 
<DataArray  type="Float64"  Name="Pressure"  format="ascii">9.6917074729834529e-01  0.0000000000000000e+00  0.0000000000000000e+00  9.6306707465465002e-01  -5.6469351446906402e-01  9.9826930732638186e-01  -4.4302783046960215e-01  9.1932943025541181e-01  9.1596970321679416e-01  9.0195547368646201e-01  8.9929084627364209e-01  8.9416837105210445e-01  8.9104593369981144e-01  8.8741001015410959e-01  8.8376821428559393e-01  8.7918128965595199e-01  8.7414703978406572e-01  8.6838859076521535e-01  8.6122735566154407e-01  8.5272850098763164e-01  8.4295936131906413e-01  8.3185547650639291e-01  8.1873295013982728e-01  8.0311917344938211e-01  7.8386557923473066e-01  7.5948172227960442e-01  7.2896138435916114e-01  6.9003102485441803e-01  6.4224296122354740e-01  5.8321756461913077e-01  5.1187124926906657e-01  4.3011855546059113e-01  3.3716728312095262e-01  2.4000750780082264e-01  1.4058698471172335e-01  4.5966217345790081e-02  -4.1197328423586504e-02  -1.1788987653664176e-01  -1.8431785312600199e-01  -2.3986129754250499e-01  -2.8607970333970523e-01  -3.2527488119254611e-01  -3.5632485796175900e-01  -3.8269450651190873e-01  -4.0253265209358347e-01  -4.1720826536049754e-01  -4.2715093017528688e-01  -4.3318099558660578e-01  -4.3358811627984423e-01  -4.3053952008358093e-01  -4.2292868314617887e-01  -4.1213564521388940e-01  -3.9808722241302219e-01  -3.8209366683771101e-01  -3.6432224700081162e-01  -3.4586824625162144e-01  -3.2719823740873627e-01  -3.0899150446492119e-01  -2.9170482343969095e-01  -2.7571526777982402e-01  -2.6107159188122475e-01  -2.4790437671094687e-01  -2.3622223407264856e-01  -2.2586353757091768e-01  -2.1670097381999040e-01  -2.0838320925722401e-01  -2.0055292885586640e-01  -1.9268655885227004e-01  -1.8446662822908508e-01  -1.7618064487590707e-01  -1.6835946255631951e-01  -1.6229100684279144e-01  -1.5818485556529785e-01  -1.5708410491362190e-01  -1.5878209332194623e-01  -1.6339080946614754e-01  -1.7081707704144586e-01  -1.8085748761059620e-01  -1.9389207998293376e-01  -2.0885810983290501e-01  -2.2584595771770577e-01  -2.4350563083884771e-01  -2.6083572899723723e-01  -2.7638188786777618e-01  -2.8930440251094441e-01  -2.9759726288064103e-01  -3.0086655052220940e-01  -2.9710211701632061e-01  -2.8617702862939115e-01  -2.6652092857869430e-01  -2.3623590009960524e-01  -2.0038812237676373e-01  -1.6200286226803726e-01  -1.2489347682564540e-01  -9.1549935860419221e-02  -6.3876804340386867e-02  -4.2935725165355355e-02  -2.8390725205948507e-02  -1.8481795686198274e-02  -1.3300696334319321e-02  -1.1273718600816111e-02  -1.1413622220532183e-02  -1.3411176023380099e-02  -1.6358675989583391e-02  -1.9913092472146919e-02  -2.3853327594493514e-02  -2.7952293062013085e-02  -3.2043536218917222e-02  -3.6172519552411873e-02  -4.0226369895823566e-02  -4.4200907109867106e-02  -4.8167429355798264e-02  -5.2004128394120851e-02  -5.5696314228670968e-02  -5.9105309575779391e-02  -6.2097500035411937e-02  -6.4501940235651006e-02  -6.6036789784371192e-02  -6.6582395648786832e-02  -6.5900854445477219e-02  -6.3862614798458797e-02  -6.0508711123667895e-02  -5.5950499286256485e-02  -5.0310866500841114e-02  -4.4012315230125533e-02  -3.7180438147284466e-02  -3.0272388708643058e-02  -2.3700522814768324e-02  -1.7473903327664120e-02  -1.1995330304951599e-02  -7.3163585076237636e-03  -3.4027531712909464e-03  -4.0351180016190213e-04  1.8834825356851973e-03  3.4071021220238406e-03  4.3328374794993456e-03  4.7100421355190606e-03  4.6447403769528470e-03  4.2041113530886954e-03  3.4642399974562279e-03  2.4987193466486732e-03  1.3322393773055380e-03  0.0000000000000000e+00  0.0000000000000000e+00  0.0000000000000000e+00  0.0000000000000000e+00  0.0000000000000000e+00  0.0000000000000000e+00  0.0000000000000000e+00  0.0000000000000000e+00  0.0000000000000000e+00  0.0000000000000000e+00  0.0000000000000000e+00  0.0000000000000000e+00  0.0000000000000000e+00  0.0000000000000000e+00  0.0000000000000000e+00  0.0000000000000000e+00  0.0000000000000000e+00  0.0000000000000000e+00  0.0000000000000000e+00  0.0000000000000000e+00  0.0000000000000000e+00  0.0000000000000000e+00  0.0000000000000000e+00  0.0000000000000000e+00  0.0000000000000000e+00  0.0000000000000000e+00  0.0000000000000000e+00  0.0000000000000000e+00  0.0000000000000000e+00  0.0000000000000000e+00  0.0000000000000000e+00  0.0000000000000000e+00  0.0000000000000000e+00  0.0000000000000000e+00  0.0000000000000000e+00  0.0000000000000000e+00  0.0000000000000000e+00  0.0000000000000000e+00  0.0000000000000000e+00  0.0000000000000000e+00  0.0000000000000000e+00  0.0000000000000000e+00  0.0000000000000000e+00  0.0000000000000000e+00  0.0000000000000000e+00  0.0000000000000000e+00  0.0000000000000000e+00  -9.8530905980732486e-04  -1.9468704166025021e-03  -2.9011127854761424e-03  -3.7747041234457287e-03  -4.5483443695960900e-03  -5.1522167663398425e-03  -5.5047081152970346e-03  -5.4373783964730927e-03  -4.8672539202206568e-03  -3.6111592459454602e-03  -1.5572635307517055e-03  1.5612270601097903e-03  5.7423676549393518e-03  1.1216899831175291e-02  1.7848195167268734e-02  2.5739660482352697e-02  3.4795960239676405e-02  4.4832188316099322e-02  5.5809423600315003e-02  6.7359791542380712e-02  7.9453141365934093e-02  9.1513025598437395e-02  1.0330631664964798e-01  1.1372154708816354e-01  1.2188854114869439e-01  1.2603512371534456e-01  1.2482626763817989e-01  1.1636295262535624e-01  9.9658798807572835e-02  7.4685013083587298e-02  4.0905148580260647e-02  9.3085250122619718e-04  -4.3809084373369320e-02  -9.0375880053863641e-02  -1.3606924237231433e-01  -1.7903138020424422e-01  -2.1556122829674210e-01  -2.4522844740883873e-01  -2.6592329795433434e-01  -2.7967043355095778e-01  -2.8249164391988746e-01  -2.7805854661025237e-01  -2.6743756527404372e-01  -2.5164244710882044e-01  -2.3258899088026702e-01  -2.1289106971680583e-01  -1.9314737818699620e-01  -1.7535391115182089e-01  -1.6018256271068748e-01  -1.4832063434657430e-01  -1.4014929221151218e-01  -1.3588698705745572e-01  -1.3628116089366482e-01  -1.4022707723368838e-01  -1.4722145887637916e-01  -1.5678812729870736e-01  -1.6867621367413246e-01  -1.8283678411809695e-01  -1.9867899675211390e-01  -2.1550092688521311e-01  -2.3252151049624820e-01  -2.4880609211664614e-01  -2.6359228436890902e-01  -2.7604789394200718e-01  -2.8579168710460157e-01  -2.9248219916527940e-01  -2.9616927815700461e-01  -2.9686354705809825e-01  -2.9528896439290458e-01  -2.9160241153755789e-01  -2.8657217625294418e-01  -2.8072102207688115e-01  -2.7453609612992941e-01  -2.6854805650881880e-01  -2.6311991971477178e-01  -2.5877347476487256e-01  -2.5557545915421037e-01  -2.5392082029266094e-01  -2.5377387752401320e-01  -2.5506641615721060e-01  -2.5762985314045533e-01  -2.6131927686484913e-01  -2.6624565210531126e-01  -2.7241010797837317e-01  -2.7978007506934627e-01  -2.8851482007253421e-01  -2.9846473053650863e-01  -3.0949703461396627e-01  -3.2141053492883326e-01  -3.3384403743939972e-01  -3.4644345532680670e-01  -3.5876851398562021e-01  -3.7043968289110935e-01  -3.8117765374489160e-01  -3.9106828267257376e-01  -3.9930285198500942e-01  -4.0633688681383079e-01  -4.1215567796111646e-01  -4.1581552686287920e-01  -4.1868513129989038e-01  -4.1872718266806563e-01  -4.1694043077054654e-01  -4.1081320598898147e-01  -4.0097330947232507e-01  -3.8480233605752168e-01  -3.6025420436056194e-01  -3.2464673226922042e-01  -2.8068037545173014e-01  -2.1990614364184824e-01  -1.4861759104330852e-01  -6.4876054416289061e-02  2.6756620772069750e-02  1.2271788559666269e-01  2.1859709959359463e-01  3.1095440343109998e-01  3.9515059565649335e-01  4.7022227479727974e-01  5.3537417283815447e-01  5.9215309989172193e-01  6.3950192894365265e-01  6.8075246416029611e-01  7.1835922451387180e-01  7.5041793826150538e-01  7.7995985604966855e-01  8.0347863196690927e-01  8.2450238207882032e-01  8.4061020162369970e-01  8.5415133788116127e-01  8.6572630746540080e-01  8.7347853499728256e-01  8.8107311030485436e-01  8.8863685473227594e-01  8.9315291855425316e-01  9.0896727181051740e-01  9.1268634362793799e-01  9.3084615349189115e-01  9.1338096797633173e-01  9.0917865883232873e-01  9.0743262111659928e-01  9.0753389948586916e-01  9.0915798182689855e-01  9.1271002839874016e-01  9.1786207052767799e-01  9.3680795320816124e-01  -4.7954870293036422e-01  -4.7233915238947416e-01  -4.7288981666073338e-01  -4.7028778470783045e-01  -4.6675196418160675e-01  -4.6267585625948376e-01  -4.5840027111006704e-01  -4.5419292243287573e-01  -4.5036519487806731e-01  -4.4733158496813141e-01  -4.4565821315596044e-01  -4.4585360943845148e-01  -4.4822910157648782e-01  -4.5281415756439675e-01  -4.5933227000595256e-01  -4.6757650294680675e-01  -4.7738096960111481e-01  -4.8874275560316227e-01  -5.0240398984463952e-01  -5.1852705374986130e-01  -5.3730406758054250e-01  -5.5887353030624165e-01  -5.8280022752236871e-01  -6.0874859409995619e-01  -6.3574911360651309e-01  -6.6302662529598599e-01  -6.8882992656463859e-01  -7.1157898088497806e-01  -7.2978609410186257e-01  -7.4221415801170254e-01  -7.4700962584772523e-01  -7.4357515499295079e-01  -7.3063739408503481e-01  -7.0831431696351965e-01  -6.7672237256272338e-01  -6.3579218115491076e-01  -5.8675965801292163e-01  -5.3040143896123837e-01  -4.6694350814170105e-01  -3.9868337620929450e-01  -3.2625870084686098e-01  -2.4983035156731614e-01  -1.7118282333448989e-01  -9.2353996644185990e-02  -1.1289151829715564e-02  6.8020890723880886e-02  1.4766163264940085e-01  2.2538343265153890e-01  3.0019437079654088e-01  3.7279408948471426e-01  4.4289020223996861e-01  5.0929729568130944e-01  5.7185148274905917e-01  6.3140200146917280e-01  6.8662694376161282e-01  7.3762760013997930e-01  7.8452614453297831e-01  8.2734759057485130e-01  8.6559912956432461e-01  8.9944683636565503e-01  9.3053696608779024e-01  9.4954347757286228e-01  1.0326625848527373e+00  1.0333886884986949e+00  1.0379973666246476e+00  1.0398539652423526e+00  1.0404381742211035e+00  1.0399759281976673e+00  1.0387001132273135e+00  1.0368116835900931e+00  1.0343360942447737e+00  1.0313770038804710e+00  1.0279783810308329e+00  1.0241673528138482e+00  1.0199736794029415e+00  1.0154037869905563e+00  1.0104664120122779e+00  1.0051522920100366e+00  9.9945527344641294e-01  9.9336031829855653e-01  9.8684644063458204e-01  9.7991470766525934e-01  9.7244726893560851e-01  9.6452581624998401e-01  9.5600764580024244e-01  9.4691694548714667e-01  9.3710233996498249e-01  9.2657580521232619e-01  9.1518804572155688e-01  9.0282660655424596e-01  8.8943877296096174e-01  8.7482983678369863e-01  8.5881809302903700e-01  8.4116261138790660e-01  8.2157821784854024e-01  7.9970568488074190e-01  7.7509042310747545e-01  7.4713417770842938e-01  7.1496867297565214e-01  6.7754660286571233e-01  6.3333580242156795e-01  5.7988554040834650e-01  5.1340049586752023e-01  4.2704178299517831e-01  3.0579537762000703e-01  1.6762386332430773e-01  -5.2653677365644558e-01  -4.2516247941342428e-01  -4.0747102446359035e-01  -3.9449502609986059e-01  -3.8705249185420487e-01  -3.8260685102000197e-01  -3.7985402480334080e-01  -3.7818724874386289e-01  -3.7716516467501454e-01  -3.7649676871017074e-01  -3.7599740578844448e-01  -3.7554132985336153e-01  -3.7504530407177977e-01  -3.7445115341056134e-01  -3.7371065589315511e-01  -3.7278273895960234e-01  -3.7162665071968454e-01  -3.7020672206351762e-01  -3.6848844710036088e-01  -3.6644445723840163e-01  -3.6405818896758152e-01  -3.6132042082162985e-01  -3.5824176648606365e-01  -3.5484980733513588e-01  -3.5118562516633439e-01  -3.4732140801576478e-01  -3.4334603132887120e-01  -3.3936449514529615e-01  -3.3551891487137581e-01  -3.3194333028846540e-01  -3.2881642959055080e-01  -3.2629867562380893e-01  -3.2457865661622998e-01  -3.2382574733409025e-01  -3.2421101292169258e-01  -3.2591260241267506e-01  -3.2904243521303994e-01  -3.3376189539386059e-01  -3.4014077200847581e-01  -3.4833462322804593e-01  -3.5837895559094513e-01  -3.7043360363857569e-01  -3.8547644540642562e-01  -3.9651438911444081e-01  -3.9907894600292387e-01  -3.3023100434670644e-01  -3.3509212952050782e-01  -4.5785337662870879e-01  -3.1389243285733537e-01  -2.8200312963149832e-01  -3.5662288855220581e-01  -3.7041639025877932e-01  3.2417393136323477e-04  -4.6427375768019952e-01  -4.5117561812637280e-01  -1.7569248301359200e-01  -2.1475199031160788e-01  -2.9616626883955349e-01  -1.7326306398717653e-01  -2.5432952252392993e-01  -2.2931995004907488e-01  -2.9852544456012392e-01  -4.0279937464912025e-01  1.0014856375697563e+00  1.0311455893336876e+00  1.0234711929802833e+00  9.5791528213391508e-01  8.9400081555418132e-01  5.8312846588897912e-04  -1.6072600199585266e-01  -2.5734791846865662e-01  -2.7703087996018139e-01  -1.3590593701935644e-01  -1.5594898567977989e-02  8.9265492659860238e-03  -5.6347174484798945e-05  -3.3852748604104682e-01  8.0741206320305048e-01  6.4784231589917085e-01  1.7569287909209094e-01  -3.7505936549723856e-01  -3.8005409373443988e-01  -4.2149143100576070e-01  7.1951162088598742e-04  -1.1325525563665305e-01  -2.4055266995759900e-01  -1.2434781754863469e-02  -2.0330285328162090e-01  -4.2219780061987150e-02  1.0687850229635246e-01  -6.6271448400800431e-02  7.4695215742463045e-02  -4.7778945686459004e-02  -4.2839100062486130e-01  9.3993718518045433e-01  8.0172825293442385e-01  6.0322077643517380e-01  -4.4793974229513156e-01  -3.8299848800080810e-01  -3.2946287435004949e-04  8.3580934799711681e-01  -4.2025440926645547e-03  9.6995034456985390e-04  -3.6801017908531120e-01  3.3480665873209620e-01  -2.5764631979755831e-01  -2.5875262380610353e-01  -5.6847015877601409e-02  -2.5915878627433029e-02  -2.2255256004766067e-02  1.1769538905666455e-01  -2.8063587227029008e-01  -1.6539185237113135e-01  -2.8108679494463953e-02  1.0380133707068770e+00  -4.4952976993937213e-04  8.2802377663215225e-04  8.7131609565813561e-01  -4.7218307690849298e-01  2.7019087647241428e-02  7.7004882153273313e-01  8.4698667376988601e-01  -4.1174394368251782e-01  -5.0484401194302075e-01  -2.0828472783304813e-01  -5.6534999630361649e-01  -6.3967282767606248e-01  -7.0997897801309529e-01  -7.3511242124713871e-01  -6.8335724451176705e-01  -5.5233695419772233e-01  7.6156153872782661e-01  -2.0653509431905279e-01  6.6049628060735066e-01  -4.1504295136933383e-01  6.6325308056191046e-01  4.9692429822932299e-01  4.6327222921615863e-03  -4.7623298899216876e-03  -1.9720059485170599e-01  -2.6624965316171229e-01  -2.6679650858068976e-01  -6.2808630700992796e-02  2.9959083212694141e-02  1.1465456354024493e-02  -3.5667375117908928e-01  -3.2645615782945936e-01  -3.4600373570659831e-01  9.3023535185212958e-01  -3.6492396952716827e-01  1.0164537302893704e+00  9.8261286341553455e-01  -4.6873718795478135e-04  1.3764689962141906e-04  7.3917801389507243e-04  4.1980910557274189e-04  8.8592033362620881e-01  -3.9138225401289128e-01  2.5416480296294752e-01  8.7883043867616772e-01  4.5601304575305052e-01  -3.0331204932602301e-01  9.0783395316215454e-01  -1.9548486389342885e-02  7.2296349248232746e-04  8.9731837551570326e-01  8.1554885139216182e-01  -4.5813230842429881e-01  -4.5658805002560898e-01  -4.4687344021295872e-01  -4.6790467602926167e-01  7.1196182869878322e-01  -3.6624429466858222e-01  1.8929580988126898e-01  8.7861195215440036e-01  4.7712576347726227e-01  8.5681518862145190e-01  -2.4060185711747375e-03  -1.4410376880723663e-01  -2.9205454793041147e-01  8.0947545572311919e-01  -3.6839838602240471e-01  -4.2244291511943466e-01  -1.7434527718461984e-01  -2.1094228673161364e-01  -1.6072810723685757e-01  -3.1314220353526717e-01  -2.0810327859227995e-01  -2.6786233909860196e-01  -2.8144932559127611e-01  -2.8831770564102388e-01  -3.9982258886459615e-01  -1.8332097704315292e-01  -2.6081467277733900e-01  -2.5377743360370558e-01  -3.6045048512530592e-01  -3.0765800495863832e-01  -4.0784546125766002e-01  1.7795355022258383e-01  -6.3298674871220748e-02  -5.3992814944714418e-02  -2.7198261860026707e-02  -1.7873206293758336e-02  -4.9476871784996601e-02  -5.3240854873252167e-03  -3.3336444809328777e-02  -1.8256144960273687e-01  -1.2257804439544063e-02  3.8057035467142885e-03  3.7818319357961622e-03  -1.4271953222103345e-01  -2.7110921792676096e-01  -2.5741177217500127e-04  9.7096453674493294e-02  -1.1329651506674941e-01  -2.5771202105660601e-01  -1.9987792681535835e-01  -5.4485004431819436e-03  5.1956585552860965e-02  1.2443501591139246e-01  5.4438773395619124e-02  8.9373705763452449e-01  9.0748837057737775e-01  -3.3997500245919454e-01  -3.2938312289513161e-01  8.6447506465885637e-01  7.5720521588968814e-01  5.3416040449569635e-01  1.0247413637456098e+00  -3.9310616074499655e-01  1.0359714830235836e+00  1.0352821517736972e+00  -5.0363856989911304e-01  -4.8689707643814850e-01  -4.2507400641254867e-01  -3.5990935306266492e-01  -3.9312319604965984e-01  -3.0233480880371016e-01  -2.2762508367357878e-01  -1.0682940025713453e-01  -9.7823031840397243e-02  1.9116611380271258e-02  1.7059239245443704e-02  1.1316895248651715e-01  -7.4146447205145793e-02  1.0386815107615296e-01  1.8539995831562323e-01  2.0556259563585325e-01  2.6143607985386969e-01  2.8852783511681496e-01  3.3126197990570250e-01  3.6080325219252274e-01  3.9307256453979683e-01  4.2275271335460196e-01  4.4697052408225246e-01  4.7569588698212500e-01  4.9393298715265571e-01  5.2107217678724960e-01  5.3486970351263430e-01  5.6015877119361990e-01  5.4967297343960619e-01  5.8631251099856529e-01  5.7908693859260951e-01  6.1283055628464167e-01  6.1790033081213980e-01  6.4187106202238087e-01  6.3921471219836234e-01  6.6557594614559112e-01  6.6502642397056388e-01  6.8870246420295189e-01  6.8848917298836687e-01  7.0934139545750419e-01  7.1100628282484735e-01  7.2945905176840375e-01  7.3231548189469498e-01  7.4871508089548022e-01  7.5252426044133425e-01  7.6702969131687526e-01  7.6319940900982430e-01  7.7988403341885182e-01  7.8436169394380739e-01  7.9572235949768977e-01  8.0070184038588987e-01  8.1070198531252846e-01  8.1606282273025887e-01  8.2483154988423213e-01  8.1962504683207915e-01  8.3266176760368515e-01  8.3813145387569454e-01  8.4496788030685999e-01  8.5062381746384153e-01  8.5656397165379439e-01  8.6234857215255589e-01  8.6745999419807296e-01  8.7333581662638760e-01  8.7770433518828206e-01  8.8362161234010972e-01  8.8731282131784084e-01  8.9324509257667639e-01  8.9630720765874128e-01  9.0223657269336555e-01  9.0464019052593014e-01  8.9896242678225058e-01  9.1061612210004728e-01  9.1246300225728050e-01  9.1842876270512974e-01  9.1990293966517389e-01  9.2573696441487718e-01  9.2675029577992996e-01  9.3249939499502932e-01  9.3319200333416219e-01  9.3879149541114360e-01  9.3881763960312170e-01  8.6183254537306309e-01  9.2748414986858663e-01  9.3829745757300187e-01  9.4448699029777228e-01  9.0828562223651965e-01  9.4411693475954972e-01  9.5020630736512512e-01  8.6840053430833586e-01  9.4993217038995303e-01  9.5592558806863770e-01  9.5571612662585625e-01  9.6160739301667242e-01  9.6143126599145190e-01  9.6701016337324464e-01  9.6647175416742725e-01  9.7194184995152610e-01  9.7104896059113954e-01  9.7640890836087435e-01  9.7528314837886032e-01  9.8044099292430009e-01  9.7892151710349806e-01  9.8170438538494120e-01  9.8560487153871967e-01  7.0854805928148745e-01  8.0623936952163677e-01  7.7604088559921369e-01  8.2758347112567587e-01  9.6722443382509338e-01  9.8690100458906038e-01  9.9068787320912288e-01  7.3609740366821541e-01  9.9198345790760112e-01  9.9565628315921983e-01  9.9400859273325637e-01  9.9885671982059732e-01  9.9685689902737140e-01  1.0015746776369132e+00  9.9921579015776851e-01  1.0037899074245211e+00  1.0010794579394882e+00  1.7278530300701345e-01  3.6760610491129120e-01  5.1088399455029410e-01  5.4806129748239085e-01  9.7043279564657003e-01  9.4932001442218783e-01  1.0061472784765657e+00  1.0082129253089762e+00  9.9692359084471727e-01  9.9289481317194372e-01  1.0105465702213563e+00  1.0124560574137684e+00  9.9777508952940996e-01  9.9339085604936728e-01  5.2661757803812914e-01  5.6060911226414500e-01  3.9581305692444557e-01  1.0147399532144741e+00  1.0164850101787846e+00  1.0137913466757800e+00  1.0176212639