<?xml version="1.0"?>
<VTKFile type="UnstructuredGrid"  version="0.1"  >
<UnstructuredGrid>
<Piece  NumberOfPoints="22947" NumberOfCells="45411">
<Points>
<DataArray  type="Float64"  NumberOfComponents="3"  format="ascii">0 0 0  5 0 0  5 1 0  0 1 0  1.5 0.2 0  1.3 0.6 0  1.7 0.6 0  0.09988181715350253 0 0  0.1997636343069831 0 0  0.2996454514604577 0 0  0.3995272686139624 0 0  0.4994090857674671 0 0  0.5992909029209642 0 0  0.6991727200743116 0 0  0.7977480796387948 0 0  0.8833077882008854 0 0  0.9552465290058831 0 0  1.015928428880551 0 0  1.06737033859586 0 0  1.111317272793253 0 0  1.14931422653285 0 0  1.182777857033489 0 0  1.213067364367625 0 0  1.241543873852857 0 0  1.269517245850398 0 0  1.297484154653317 0 0  1.325451063456236 0 0  1.353417972259155 0 0  1.381384881062075 0 0  1.409351789864994 0 0  1.437318698667913 0 0  1.465285607470832 0 0  1.493252516273751 0 0  1.521219425076671 0 0  1.54918633387959 0 0  1.577153242682509 0 0  1.605120151485428 0 0  1.633087060288348 0 0  1.661053969091267 0 0  1.689020877894186 0 0  1.716987786697105 0 0  1.744954695500025 0 0  1.772921604302944 0 0  1.800888513105863 0 0  1.828855421908782 0 0  1.856822330711702 0 0  1.884789239514621 0 0  1.91275614831754 0 0  1.940723057120459 0 0  1.968689965923379 0 0  1.996656874726308 0 0  2.02462378352929 0 0  2.052590692332318 0 0  2.080557601135361 0 0  2.108524509938404 0 0  2.136491418741448 0 0  2.164458327544491 0 0  2.192425236347535 0 0  2.220392145150578 0 0  2.248359053953621 0 0  2.276325962756665 0 0  2.304292871559708 0 0  2.332259780362751 0 0  2.360226689165795 0 0  2.388193597968838 0 0  2.416160506771881 0 0  2.444127415574925 0 0  2.472094324377968 0 0  2.500061233181011 0 0  2.528028141984055 0 0  2.555995050787098 0 0  2.583961959590142 0 0  2.611928868393185 0 0  2.639895777196228 0 0  2.667862685999272 0 0  2.695829594802315 0 0  2.723796503605358 0 0  2.751763412408402 0 0  2.779730321211445 0 0  2.807697230014488 0 0  2.835664138817531 0 0  2.863631047620574 0 0  2.891597956423618 0 0  2.919564865226662 0 0  2.947531774029705 0 0  2.975498682832749 0 0  3.003466037710658 0 0  3.031764566682743 0 0  3.061630572857904 0 0  3.094429607623581 0 0  3.13021238288224 0 0  3.166169837057582 0 0  3.202127291232924 0 0  3.238084745408265 0 0  3.274042199583607 0 0  3.309999653758949 0 0  3.34595710793429 0 0  3.381914562109632 0 0  3.417872016284973 0 0  3.453829470460315 0 0  3.489786924635657 0 0  3.525744378810998 0 0  3.56170183298634 0 0  3.597659287161681 0 0  3.633616741337023 0 0  3.669574195512365 0 0  3.705531649687707 0 0  3.741489103863048 0 0  3.77744655803839 0 0  3.813404012213732 0 0  3.849361466389073 0 0  3.885318920564415 0 0  3.921276374739756 0 0  3.957233828915097 0 0  3.993191283090439 0 0  4.02914873726578 0 0  4.065106191441122 0 0  4.101063645616464 0 0  4.137021099791806 0 0  4.172978553967147 0 0  4.208936008142489 0 0  4.24489346231783 0 0  4.280850916493172 0 0  4.316808370668514 0 0  4.352765824843855 0 0  4.388723279019197 0 0  4.424680733194538 0 0  4.46063818736988 0 0  4.496595641545222 0 0  4.532553095720563 0 0  4.568510549895905 0 0  4.604468004071246 0 0  4.640425458246588 0 0  4.676382912421929 0 0  4.712340366597271 0 0  4.748297820772613 0 0  4.784255274947953 0 0  4.820212729123295 0 0  4.856170183298635 0 0  4.892127637473977 0 0  4.928085091649318 0 0  4.964042545824659 0 0  5 0.0328500670419322 0  5 0.06090401573905966 0  5 0.08486207734983149 0  5 0.1054388876402908 0  5 0.1251669432582367 0  5 0.1448949988761606 0  5 0.1646230544940819 0  5 0.1843511101120033 0  5 0.2040791657299246 0  5 0.2238072213478459 0  5 0.2435352769657672 0  5 0.2632633325836884 0  5 0.2829913882016097 0  5 0.3027194438195311 0  5 0.3224474994374524 0  5 0.3421755550553737 0  5 0.3619036106732951 0  5 0.3816316662912164 0  5 0.4013597219091377 0  5 0.421087777527059 0  5 0.4408158331449803 0  5 0.4605438887629016 0  5 0.4802719443808229 0  5 0.4999999999987551 0  5 0.519728055616775 0  5 0.5394561112348057 0  5 0.5591841668528366 0  5 0.5789122224708674 0  5 0.5986402780888981 0  5 0.6183683337069288 0  5 0.6380963893249596 0  5 0.6578244449429903 0  5 0.6775525005610212 0  5 0.6972805561790519 0  5 0.7170086117970828 0  5 0.7367366674151135 0  5 0.7564647230331443 0  5 0.776192778651175 0  5 0.7959208342692058 0  5 0.8156488898872365 0  5 0.8353769455052672 0  5 0.855105001123298 0  5 0.8748330567413287 0  5 0.8945611123593595 0  5 0.9151379226498687 0  5 0.9390959842606995 0  5 0.9671499329579316 0  4.964042545824707 1 0  4.928085091649415 1 0  4.892127637474122 1 0  4.856170183298829 1 0  4.820212729123536 1 0  4.784255274948244 1 0  4.748297820772951 1 0  4.712340366597658 1 0  4.676382912422365 1 0  4.640425458247072 1 0  4.604468004071779 1 0  4.568510549896486 1 0  4.532553095721194 1 0  4.496595641545901 1 0  4.460638187370608 1 0  4.424680733195316 1 0  4.388723279020023 1 0  4.35276582484473 1 0  4.316808370669437 1 0  4.280850916494145 1 0  4.244893462318852 1 0  4.208936008143559 1 0  4.172978553968266 1 0  4.137021099792974 1 0  4.101063645617681 1 0  4.065106191442388 1 0  4.029148737267096 1 0  3.993191283091803 1 0  3.95723382891651 1 0  3.921276374741217 1 0  3.885318920565925 1 0  3.849361466390632 1 0  3.813404012215339 1 0  3.777446558040046 1 0  3.741489103864753 1 0  3.705531649689461 1 0  3.669574195514167 1 0  3.633616741338875 1 0  3.597659287163582 1 0  3.561701832988289 1 0  3.525744378812996 1 0  3.489786924637703 1 0  3.45382947046241 1 0  3.417872016287117 1 0  3.381914562111825 1 0  3.345957107936532 1 0  3.309999653761239 1 0  3.274042199585946 1 0  3.238084745410653 1 0  3.20212729123536 1 0  3.166169837060067 1 0  3.130212382884775 1 0  3.094429607626076 1 0  3.061630572860181 1 0  3.031764566684895 1 0  3.00346603771278 1 0  2.97549868283491 1 0  2.947531774031904 1 0  2.919564865228899 1 0  2.891597956425894 1 0  2.863631047622888 1 0  2.835664138819883 1 0  2.807697230016877 1 0  2.779730321213872 1 0  2.751763412410866 1 0  2.723796503607861 1 0  2.695829594804855 1 0  2.66786268600185 1 0  2.639895777198844 1 0  2.611928868395839 1 0  2.583961959592834 1 0  2.555995050789828 1 0  2.528028141986823 1 0  2.500061233183817 1 0  2.472094324380812 1 0  2.444127415577806 1 0  2.416160506774801 1 0  2.388193597971795 1 0  2.36022668916879 1 0  2.332259780365785 1 0  2.304292871562779 1 0  2.276325962759774 1 0  2.248359053956768 1 0  2.220392145153763 1 0  2.192425236350757 1 0  2.164458327547752 1 0  2.136491418744747 1 0  2.108524509941741 1 0  2.080557601138736 1 0  2.05259069233573 1 0  2.024623783532725 1 0  1.99665687472972 1 0  1.968689965926714 1 0  1.940723057123709 1 0  1.912756148320703 1 0  1.884789239517698 1 0  1.856822330714692 1 0  1.828855421911687 1 0  1.800888513108681 1 0  1.772921604305676 1 0  1.74495469550267 1 0  1.716987786699665 1 0  1.68902087789666 1 0  1.661053969093654 1 0  1.633087060290649 1 0  1.605120151487644 1 0  1.577153242684639 1 0  1.549186333881632 1 0  1.521219425078627 1 0  1.493252516275621 1 0  1.465285607472617 1 0  1.437318698669611 1 0  1.409351789866606 1 0  1.3813848810636 1 0  1.353417972260594 1 0  1.32545106345759 1 0  1.297484154654584 1 0  1.269517245851579 1 0  1.241543873853952 1 0  1.213067364368676 1 0  1.182777857034534 1 0  1.149314226533915 1 0  1.111317272794346 1 0  1.067370338596986 1 0  1.015928428881706 1 0  0.9552465290070451 1 0  0.8833077882020213 1 0  0.7977480796398604 1 0  0.6991727200751363 1 0  0.5992909029215436 1 0  0.4994090857679536 1 0  0.3995272686143618 1 0  0.2996454514607718 1 0  0.1997636343071827 1 0  0.09988181715359001 1 0  0 0.8999999999995836 0  0 0.7999999999999998 0  0 0.7000000000006934 0  0 0.6000000000013869 0  0 0.5000000000020587 0  0 0.4000000000016644 0  0 0.3000000000012483 0  0 0.2000000000008322 0  0 0.100000000000416 0  1.699751384242739 0.6099691771530924 0  1.699006155066563 0.6199135693842884 0  1.697766165232479 0.6298084533184788 0  1.696034497548046 0.6396292287470388 0  1.693815457209259 0.649351479681627 0  1.691114561101324 0.6589510350634165 0  1.687938524092297 0.6684040288434037 0  1.684295242284711 0.6776869594669508 0  1.680193773487681 0.6867767480162182 0  1.67564431456081 0.6956507959321996 0  1.670658176173392 0.7042870409263378 0  1.665247754668492 0.7126640118983073 0  1.659426501197733 0.720760882390984 0  1.653208888346202 0.7285575222681306 0  1.646610374031267 0.7360345479149025 0  1.639647363235856 0.7431733702239103 0  1.632337167092531 0.7499562409702357 0  1.62469795989353 0.756366296874971 0  1.616748733919558 0.7623876015223461 0  1.608509252208739 0.7680051849946904 0  1.599999999406289 0.7732050810996667 0  1.591242130860608 0.7779743620750351 0  1.582257419988525 0.7823011707500295 0  1.573068204170437 0.7861747500046861 0  1.563697329302744 0.7895854694846042 0  1.554168092871136 0.7925248496031199 0  1.544504185999879 0.7949855826169927 0  1.534729634727922 0.7969615507444667 0  1.524868740094186 0.7984478414247124 0  1.514946017836289 0.7994407595022575 0  1.504986137413824 0.7999378364234504 0  1.495013860716175 0.7999378363768156 0  1.485053980351481 0.7994407593664496 0  1.475131258156531 0.7984478412054987 0  1.465270363613604 0.7969615504520329 0  1.4554958123743 0.7949855822459098 0  1.445831905597438 0.7925248491722436 0  1.436302669250897 0.7895854689986533 0  1.426931794485273 0.786174749477091 0  1.417742578777908 0.7823011701934227 0  1.408757867959409 0.7779743614700931 0  1.399999999478033 0.7732050804555297 0  1.391490746737941 0.7680051843143844 0  1.383251265066765 0.7623876007935619 0  1.375302039213222 0.7563662961626294 0  1.367662832117841 0.7499562402733849 0  1.360352636037667 0.7431733695153243 0  1.353389625336735 0.736034547233771 0  1.346791111115898 0.7285575216270866 0  1.340573498342716 0.7207608817842938 0  1.33475224496031 0.7126640113538593 0  1.329341823531611 0.7042870404435957 0  1.324355685207748 0.6956507955072012 0  1.319806226317615 0.6867767476119111 0  1.315704757542792 0.6
[...]
<PointData  Scalars="Pressure"> 
<DataArray  type="Float64"  Name="Pressure"  format="ascii">9.6716177470081366e-01  0.0000000000000000e+00  0.0000000000000000e+00  9.6065084267025191e-01  -5.3275022446263731e-01  9.9273794402516125e-01  -4.7610858828753366e-01  9.1732027201808330e-01  9.1399136368071043e-01  9.0001819022353879e-01  8.9742221701894009e-01  8.9240408558991102e-01  8.8942512968411946e-01  8.8599395858087648e-01  8.8257752479323870e-01  8.7828363021994815e-01  8.7355140188080682e-01  8.6809155140556626e-01  8.6127212158746802e-01  8.5313311330981212e-01  8.4374341676290199e-01  8.3303459493190857e-01  8.2034844945262497e-01  8.0522194797593116e-01  7.8653581261380334e-01  7.6283669224926542e-01  7.3313088483505939e-01  6.9520611422594070e-01  6.4860212230446945e-01  5.9100872003540350e-01  5.2135711854936406e-01  4.4151584205887451e-01  3.5073913070009288e-01  2.5582154642777910e-01  1.5872970074351453e-01  6.6322125760273784e-02  -1.8796480435422116e-02  -9.3716330154376914e-02  -1.5865072412539810e-01  -2.1303863884719182e-01  -2.5839518498807224e-01  -2.9694790713805402e-01  -3.2764010309615627e-01  -3.5376775305102187e-01  -3.7353850645844439e-01  -3.8820485646174147e-01  -3.9820608762930493e-01  -4.0431778262654133e-01  -4.0481434461589105e-01  -4.0186599135476314e-01  -3.9437101416164816e-01  -3.8375817600674000e-01  -3.6999962903019523e-01  -3.5447552526070869e-01  -3.3744268529621796e-01  -3.2002398411520244e-01  -3.0275817971920932e-01  -2.8630448485029375e-01  -2.7107262705233881e-01  -2.5743330329041975e-01  -2.4532525063308927e-01  -2.3481023208330307e-01  -2.2584323552534552e-01  -2.1809338548873400e-01  -2.1117043111090356e-01  -2.0449378150446659e-01  -1.9787256091531405e-01  -1.9138950436778163e-01  -1.8586826337729520e-01  -1.8228281745436656e-01  -1.8132806320714676e-01  -1.8358859422308457e-01  -1.8874563730028102e-01  -1.9705449932669644e-01  -2.0837410541808485e-01  -2.2255441188266567e-01  -2.3907813417513027e-01  -2.5705345538773733e-01  -2.7531744391757951e-01  -2.9234257200750741e-01  -3.0639957184499694e-01  -3.1547297794336743e-01  -3.1838906296312641e-01  -3.1351271326702440e-01  -3.0122362047915202e-01  -2.8178982447754775e-01  -2.5637041141279371e-01  -2.2577590706164963e-01  -1.9162884304418917e-01  -1.5373316836187470e-01  -1.1654643829563774e-01  -8.5034969029329624e-02  -6.1113668861028841e-02  -4.4092373551080095e-02  -3.3198888458355669e-02  -2.6601076566407835e-02  -2.3918554116635838e-02  -2.3548845090489174e-02  -2.4559050631213167e-02  -2.6584020510249454e-02  -2.9094398173391243e-02  -3.1770358181084278e-02  -3.4502062500311591e-02  -3.7208294388376945e-02  -3.9848146727938412e-02  -4.2479614011125467e-02  -4.5164199206221431e-02  -4.7874471936405753e-02  -5.0698606585109482e-02  -5.3517824823160184e-02  -5.6236453188914501e-02  -5.8781239512788963e-02  -6.0848313113046802e-02  -6.2294234085258735e-02  -6.2795725183827492e-02  -6.2252521876725649e-02  -6.0489027135926229e-02  -5.7501038571527371e-02  -5.3331854357585001e-02  -4.8213814018077984e-02  -4.2349505043436909e-02  -3.6010686477146080e-02  -2.9627094588514469e-02  -2.3335358918845604e-02  -1.7522273721311685e-02  -1.2273537519467132e-02  -7.6061960979625972e-03  -3.8190319777415926e-03  -6.3940673436500817e-04  1.8141265547115307e-03  3.6170836194247512e-03  4.9135190249155348e-03  5.6737996139867670e-03  6.0704120600019121e-03  6.0985556279769216e-03  5.8661316584493074e-03  5.4048198070326984e-03  4.7693158510223582e-03  3.9911584285681626e-03  3.1043452435880604e-03  2.1357256118728634e-03  1.0962348229715344e-03  0.0000000000000000e+00  0.0000000000000000e+00  0.0000000000000000e+00  0.0000000000000000e+00  0.0000000000000000e+00  0.0000000000000000e+00  0.0000000000000000e+00  0.0000000000000000e+00  0.0000000000000000e+00  0.0000000000000000e+00  0.0000000000000000e+00  0.0000000000000000e+00  0.0000000000000000e+00  0.0000000000000000e+00  0.0000000000000000e+00  0.0000000000000000e+00  0.0000000000000000e+00  0.0000000000000000e+00  0.0000000000000000e+00  0.0000000000000000e+00  0.0000000000000000e+00  0.0000000000000000e+00  0.0000000000000000e+00  0.0000000000000000e+00  0.0000000000000000e+00  0.0000000000000000e+00  0.0000000000000000e+00  0.0000000000000000e+00  0.0000000000000000e+00  0.0000000000000000e+00  0.0000000000000000e+00  0.0000000000000000e+00  0.0000000000000000e+00  0.0000000000000000e+00  0.0000000000000000e+00  0.0000000000000000e+00  0.0000000000000000e+00  0.0000000000000000e+00  0.0000000000000000e+00  0.0000000000000000e+00  0.0000000000000000e+00  0.0000000000000000e+00  0.0000000000000000e+00  0.0000000000000000e+00  0.0000000000000000e+00  0.0000000000000000e+00  0.0000000000000000e+00  -1.8790595886480091e-04  -3.7259012993671439e-04  -5.7278979175553297e-04  -7.6746095195509567e-04  -9.5766321087361066e-04  -1.1515482837826127e-03  -1.3070460572084791e-03  -1.3988466415460526e-03  -1.3870970543398910e-03  -1.2208689911937945e-03  -8.0887056194429183e-04  -3.9306064773803230e-05  1.1773362423201576e-03  3.0029102570001865e-03  5.5431486969612096e-03  8.9558458670120251e-03  1.3391557676549650e-02  1.8865783346732442e-02  2.5508275269676122e-02  3.3221567481563893e-02  4.2087115835621976e-02  5.1818109410492030e-02  6.2564401306997336e-02  7.3747117436165022e-02  8.5351703664932818e-02  9.6649910444642897e-02  1.0709535070466611e-01  1.1554544367508195e-01  1.2067708293357687e-01  1.2145857245204242e-01  1.1479997956773678e-01  1.0114162423863579e-01  7.7698087894041507e-02  4.5773965159290803e-02  5.5065136133641323e-03  -3.9991810429004203e-02  -8.9072373208101602e-02  -1.3772562377537775e-01  -1.8375927761559074e-01  -2.2471010476401101e-01  -2.5681760834188561e-01  -2.8050016362795693e-01  -2.9469505348053038e-01  -2.9907775467183867e-01  -2.9433604912881139e-01  -2.8362982281395421e-01  -2.6593487798053911e-01  -2.4584256232782126e-01  -2.2405310277330359e-01  -2.0274429746960709e-01  -1.8303079702003747e-01  -1.6615261626780270e-01  -1.5281612578719275e-01  -1.4355525806592662e-01  -1.3813338919808371e-01  -1.3560183332420328e-01  -1.3548667199260320e-01  -1.3792646595495445e-01  -1.4294556582669687e-01  -1.5025852765749062e-01  -1.6000352065568943e-01  -1.7154369601709737e-01  -1.8475840543282152e-01  -1.9871889342054963e-01  -2.1313800629128185e-01  -2.2705015974563045e-01  -2.3990365168836675e-01  -2.5112338247698718e-01  -2.6031334084612257e-01  -2.6713642965689466e-01  -2.7176132941049597e-01  -2.7423614308839672e-01  -2.7482505028488252e-01  -2.7395113004423138e-01  -2.7216857882442774e-01  -2.6990370863982344e-01  -2.6767227499173024e-01  -2.6598635539608823e-01  -2.6523064269433760e-01  -2.6564023524003311e-01  -2.6733381602094280e-01  -2.7029611507006046e-01  -2.7465883897950977e-01  -2.8036696780779119e-01  -2.8737453985750672e-01  -2.9583871491180452e-01  -3.0562303835593402e-01  -3.1662276383502325e-01  -3.2869483242920289e-01  -3.4153011021375967e-01  -3.5475965779511376e-01  -3.6798662781414671e-01  -3.8079016879666688e-01  -3.9281867322098907e-01  -4.0412461439848069e-01  -4.1383124081642897e-01  -4.2231378674557241e-01  -4.2953033686306025e-01  -4.3448074271571596e-01  -4.3856113350132236e-01  -4.3966837326046970e-01  -4.3884906876310231e-01  -4.3351736866090190e-01  -4.2435814202125932e-01  -4.0868158849799774e-01  -3.8441237035939552e-01  -3.4879451284406554e-01  -3.0465350195514584e-01  -2.4327190425994666e-01  -1.7112341961669431e-01  -8.6211654890992973e-02  6.8145079929920948e-03  1.0433621523809264e-01  2.0184636270419168e-01  2.9585339773907249e-01  3.8160246939670173e-01  4.5810290460278735e-01  5.2453196496120769e-01  5.8247374546308384e-01  6.3082078177077694e-01  6.7296067055295472e-01  7.1142472425659731e-01  7.4423018684041320e-01  7.7448986635414563e-01  7.9862196111532380e-01  8.2022500205475490e-01  8.3677020657165757e-01  8.5073314410370549e-01  8.6264444125377926e-01  8.7062427476954118e-01  8.7839331138460108e-01  8.8607163913781439e-01  8.9066029388113588e-01  9.0652048006377950e-01  9.1027071933383086e-01  9.2844667588940499e-01  9.1101639702016202e-01  9.0685747929521177e-01  9.0516366561021133e-01  9.0532143202290283e-01  9.0700225622224928e-01  9.1060652670637943e-01  9.1580192468725163e-01  9.3478250130036922e-01  -5.1709266094740391e-01  -5.0777767099512561e-01  -5.0775781068024595e-01  -5.0425455168460542e-01  -4.9985259833957896e-01  -4.9496530549392137e-01  -4.8995884648227445e-01  -4.8511002850077956e-01  -4.8073133679311691e-01  -4.7722691647708471e-01  -4.7516734283718426e-01  -4.7507163692082738e-01  -4.7727488655589223e-01  -4.8182537805709136e-01  -4.8844014845544537e-01  -4.9688571978076818e-01  -5.0696300148364626e-01  -5.1863800271496774e-01  -5.3265431968855503e-01  -5.4917198837793180e-01  -5.6838465426670959e-01  -5.9043303055820262e-01  -6.1487433436216432e-01  -6.4136243647669422e-01  -6.6890676060066379e-01  -6.9671864586744192e-01  -7.2301465713539270e-01  -7.4618260961199101e-01  -7.6471351438703217e-01  -7.7734920013378972e-01  -7.8221197194112191e-01  -7.7869712753155140e-01  -7.6550143983267749e-01  -7.4276751471771052e-01  -7.1060694688527959e-01  -6.6895266586865731e-01  -6.1906828714948015e-01  -5.6176259451017840e-01  -4.9720828908991305e-01  -4.2782539075553055e-01  -3.5420283155682425e-01  -2.7652021738248422e-01  -1.9659276258735509e-01  -1.1650899879000601e-01  -3.4130846736426530e-02  4.6418827860613625e-02  1.2732953725288360e-01  2.0627011049748417e-01  2.8225160634950630e-01  3.5598485442517952e-01  4.2718587416677212e-01  4.9463417034699747e-01  5.5818009850301409e-01  6.1869614844336573e-01  6.7481842154982008e-01  7.2667158560947465e-01  7.7437252823054226e-01  8.1795473974356903e-01  8.5690846919914798e-01  8.9140400801844777e-01  9.2315881171609182e-01  9.4243159408127486e-01  1.0287662282368562e+00  1.0299018869886669e+00  1.0349670743870527e+00  1.0371687909208549e+00  1.0380424990992492e+00  1.0378293698930336e+00  1.0367750904551105e+00  1.0350885917140777e+00  1.0327988689291525e+00  1.0300145282625797e+00  1.0267823953327393e+00  1.0231318484166803e+00  1.0190947692842667e+00  1.0146791373092690e+00  1.0098950611215818e+00  1.0047346758948785e+00  9.9919298794445621e-01  9.9325604783790267e-01  9.8690402294045454e-01  9.8013878607504878e-01  9.7284483255794574e-01  9.6510311203769383e-01  9.5677417821443200e-01  9.4788204829350997e-01  9.3827877499666557e-01  9.2797619656957830e-01  9.1682862901667039e-01  9.0472599543480969e-01  8.9161704457336710e-01  8.7731150226931953e-01  8.6163142695350148e-01  8.4434130992334167e-01  8.2516207688200538e-01  8.0374272699103400e-01  7.7963797505126831e-01  7.5226383618033443e-01  7.2077001384625494e-01  6.8413232159219661e-01  6.4085490652009214e-01  5.8853514595168910e-01  5.2348268913388230e-01  4.3897123443108771e-01  3.2031481781015725e-01  1.8593467159712534e-01  -4.9642233540343922e-01  -3.9568265055272228e-01  -3.7791814060374385e-01  -3.6478884207741841e-01  -3.5720824823760167e-01  -3.5271039972540241e-01  -3.5000589557043471e-01  -3.4847355455122564e-01  -3.4764710029352636e-01  -3.4721121329540100e-01  -3.4696490535636443e-01  -3.4677368285934196e-01  -3.4655175291280138e-01  -3.4624185283339121e-01  -3.4579759932584825e-01  -3.4517974552575759e-01  -3.4434848696191134e-01  -3.4326907774079157e-01  -3.4190828791813938e-01  -3.4024215147164577e-01  -3.3825967012546776e-01  -3.3596031696424389e-01  -3.3336917517694581e-01  -3.3053092149249524e-01  -3.2750784445945919e-01  -3.2439961881979934e-01  -3.2132145937327772e-01  -3.1840643958652709e-01  -3.1582763947761860e-01  -3.1374011194593066e-01  -3.1234642945036090e-01  -3.1181418985210779e-01  -3.1234608940817660e-01  -3.1409899386317636e-01  -3.1723942318282183e-01  -3.2192338674110971e-01  -3.2823802505223515e-01  -3.3631633198422284e-01  -3.4619312887600540e-01  -3.5800802427606399e-01  -3.7177132837538857e-01  -3.8765492270715934e-01  -4.0676038809484194e-01  -4.2149416093510816e-01  -4.2283044125575736e-01  -3.2806897471493562e-01  -3.1640822320455148e-01  -4.9223790892729652e-01  -2.9031997042853713e-01  -2.8960431371013351e-01  -3.3210799774783251e-01  -3.4325615118578889e-01  3.0827941910834949e-04  -4.9734293232088755e-01  -4.8166618253984611e-01  -1.3690606105100819e-01  -2.9711062203069799e-01  -2.4693363891002190e-01  -1.8230118978806215e-01  -2.6609893537957213e-01  -2.2058586879596956e-01  -2.7002878832268956e-01  -3.7440442921349321e-01  1.0011382194368381e+00  1.0296975672572362e+00  1.0195792504456791e+00  9.5861905711687923e-01  8.9606137811841735e-01  4.3079153570978711e-04  -2.1324535581058718e-01  -1.7930188857228976e-01  -2.7402853300512647e-01  -1.6089518965176985e-01  2.0789892648492988e-04  2.2188222192638814e-03  1.3979571754475770e-04  -3.4655702983727371e-01  8.1126266641395861e-01  6.5499267963007402e-01  1.9271867482400931e-01  -3.4640289050690543e-01  -3.5036435258046228e-01  -3.9193696195971073e-01  5.0777681612415983e-04  -3.9845782026749064e-02  -2.9660301919849952e-01  -3.3242169587552821e-02  -7.2846779781112869e-02  -5.4742433254733817e-02  1.1819098805472592e-01  -5.5446633960744118e-02  3.8504682046386088e-02  -2.0931799777621544e-02  -3.9959197079688913e-01  9.3291358294215887e-01  7.9196566209969566e-01  5.9014664387407612e-01  -4.7706937358928353e-01  -3.9506266718880179e-01  -4.4685128845843429e-08  8.3682048341822346e-01  -1.2906166365851172e-03  5.8744904610296333e-03  -3.3933934492785434e-01  3.1748624396432706e-01  -1.4150095816347155e-01  -2.6802861704837239e-01  -6.2344560313515388e-02  -4.3755659932891579e-02  -2.4058009487720983e-02  7.9869111599700948e-02  -2.4468167558292103e-01  -2.3192956706560955e-01  8.5810852591039974e-02  1.0356929947274582e+00  -6.3991116719520840e-05  5.9124447669767969e-04  8.7086707296622057e-01  -5.0164270878274031e-01  4.8461406829197525e-03  7.7306483681219207e-01  8.4334577640726527e-01  -4.2966937735436006e-01  -5.3517693200815919e-01  -2.3424902030878672e-01  -5.9708932802402592e-01  -6.7298019727123581e-01  -7.4461021921747772e-01  -7.7013594721612666e-01  -7.1737721222663353e-01  -5.8403603082151034e-01  7.5567865394266520e-01  -1.8044384498965704e-01  6.5230135615221874e-01  -4.3631859674333695e-01  6.6903639942482818e-01  4.8537130973917697e-01  5.0481271663303760e-03  -1.0238536978749212e-03  -1.9566749288005442e-01  -2.4934294963594728e-01  -3.1621388868193046e-01  -4.0202874315390789e-02  1.0967411198346341e-02  3.2616140497870136e-02  -3.6836925037877455e-01  -3.1575865258645297e-01  -3.2371608866298751e-01  9.3153845326950913e-01  -3.3891556303728138e-01  1.0156490292015106e+00  9.8275096995651579e-01  -8.1100670315182097e-05  2.1864373023705916e-04  5.4161899053226776e-04  3.3523470498572091e-04  8.8461819138486419e-01  -4.1486599866603074e-01  2.3808311101748017e-01  8.7608534852284226e-01  4.6675247360333438e-01  -3.2738626817130634e-01  9.0565084367481652e-01  -4.0187533726470576e-02  5.5959433202356539e-04  8.9549263467088114e-01  8.1103507425043175e-01  -4.8981894333768228e-01  -4.8567134501940484e-01  -4.7651634262916870e-01  -5.0245238656614899e-01  7.0065964286385962e-01  -3.9480287647166473e-01  1.6968102159416118e-01  8.7028852223596931e-01  4.6202349002259463e-01  8.5702976736046033e-01  -4.6556384677934543e-04  -1.4068389016973304e-01  -2.0896531188853731e-01  8.1134507487439456e-01  -3.4095969994241099e-01  -3.9378742200757316e-01  -2.4466880785752143e-01  -2.0687679678062718e-01  -1.8624034400132497e-01  -3.2043116110184622e-01  -1.4731083297711114e-01  -2.7614013127830245e-01  -2.0703233367253171e-01  -2.6934832206565290e-01  -4.1482885242309964e-01  -2.0623649257182450e-01  -2.7051630060802206e-01  -2.6468622605235176e-01  -3.6994743779378852e-01  -2.7972050193875519e-01  -3.7900132744157777e-01  1.9519729649684295e-01  -6.1315749846648296e-02  -2.5375082313717729e-02  -5.8092252688576483e-03  -3.8348755733257363e-02  -5.9363745160583757e-02  4.2586108225139098e-03  -4.8602063699552694e-02  -7.2927113242925848e-02  -2.7605468060879726e-02  3.5375159146641771e-03  5.9513824689023161e-03  -1.8976573102400862e-01  -2.8924844595575028e-01  -4.8526053863862789e-04  5.6914242300401520e-02  2.5963029639300663e-02  -1.6361885571042342e-01  -2.7229276120168822e-01  -1.3349280600405424e-03  2.3074224509241358e-02  1.0370916595353290e-01  1.1717976180753598e-01  8.9122038448045371e-01  9.0519316712275200e-01  -3.4447044919211134e-01  -3.1419226321321730e-01  8.6714867131584561e-01  7.6209119847303108e-01  5.4369592974232483e-01  1.0236188276908522e+00  -3.6340419877126073e-01  1.0341279841037627e+00  1.0323399290651447e+00  -4.7343729414341063e-01  -4.5646193881675251e-01  -3.9577055515821885e-01  -3.3181791413503808e-01  -3.6425514898455441e-01  -2.7581613252123066e-01  -2.0278889466003430e-01  -8.4710398568486903e-02  -7.5695284004964156e-02  3.8689120217082422e-02  3.6761721434450653e-02  1.3083608961452700e-01  -5.2464331376812813e-02  1.2181945283203592e-01  2.0161471730677513e-01  2.2130020803411365e-01  2.7604474152786596e-01  3.0254032277519399e-01  3.4440084660196435e-01  3.7330880896031904e-01  4.0490431580833108e-01  4.3395705205190221e-01  4.5765455210528500e-01  4.8577717807408816e-01  5.0360771961583772e-01  5.3017972822810588e-01  5.4365504696706946e-01  5.6841679405862500e-01  5.5819203092196767e-01  5.9403268561696032e-01  5.8700772028585047e-01  6.2001116615963547e-01  6.2492118210266923e-01  6.4840397829090513e-01  6.4586276235803908e-01  6.7163012473520689e-01  6.7115653073059878e-01  6.9429237944914912e-01  6.9401732121401805e-01  7.1445075363501631e-01  7.1615042865548462e-01  7.3416621553643779e-01  7.3703505231957223e-01  7.5303850821956964e-01  7.5684195465945736e-01  7.7098885154669827e-01  7.6716409356650705e-01  7.8351671183306959e-01  7.8797639070713921e-01  7.9904004294912168e-01  8.0399163467628576e-01  8.1372152021314048e-01  8.1904665424361756e-01  8.2756924083227201e-01  8.2239490108212410e-01  8.3517099354757274e-01  8.4060284063477941e-01  8.4722998685635109e-01  8.5284375041328297e-01  8.5859173828877899e-01  8.6433081834101833e-01  8.6926571887033199e-01  8.7509326439268798e-01  8.7929921738666827e-01  8.8516625818459427e-01  8.8870724985854854e-01  8.9458783870373459e-01  8.9751118829143928e-01  9.0338758285197962e-01  9.0566044270010748e-01  9.0003427964860905e-01  9.1158422669004535e-01  9.1330989911048110e-01  9.1922276963992233e-01  9.2058555643347384e-01  9.2636482362316486e-01  9.2727427577376731e-01  9.3296774216068423e-01  9.3356416107545015e-01  9.3910660561156101e-01  9.3905336963361130e-01  8.6368055100170604e-01  9.2791356254110846e-01  9.3870713116610405e-01  9.4474304468190262e-01  9.0937927818896869e-01  9.4446496732371832e-01  9.5040066885598418e-01  8.7033040226699487e-01  9.5021594186222780e-01  9.5605557092713123e-01  9.5593305156111497e-01  9.6167057248511412e-01  9.6141278056432611e-01  9.6692465460858346e-01  9.6630926451296706e-01  9.7171193987072924e-01  9.7074643861760002e-01  9.7603832588216288e-01  9.7484386414933633e-01  9.7993269665872718e-01  9.7834843670609750e-01  9.8126323184453734e-01  9.8502488609627559e-01  7.1360645645290810e-01  8.0948914641929037e-01  7.7967897841964329e-01  8.3012214166876164e-01  9.6721844554953484e-01  9.8638674633784795e-01  9.9003344465483090e-01  7.4081086530549700e-01  9.9139347828263280e-01  9.9492453741755960e-01  9.9321561002215042e-01  9.9798428972993625e-01  9.9592635303834276e-01  1.0005619568765129e+00  9.9814817158258218e-01  1.0026367534542842e+00  9.9987374196462964e-01  1.8934026363847881e-01  3.7999361598459130e-01  5.2017837279643853e-01  5.5653788034252905e-01  9.7004660104781837e-01  9.4969645281002280e-01  1.0050484315253509e+00  1.0069696371840338e+00  9.9625517085722171e-01  9.9237126466225800e-01  1.0093572234609764e+00  1.0111174960910985e+00  9.9717188619616937e-01  9.9293552887586278e-01  5.3555646731205220e-01  5.6879139991418026e-01  4.0759111066478743e-01  1.0134552210326646e+00  1.0150453377880373e+00  1.0123009893708839e+00  1.0160228568085712e+00 