<?xml version="1.0"?>
<VTKFile type="UnstructuredGrid"  version="0.1"  >
<UnstructuredGrid>
<Piece  NumberOfPoints="22947" NumberOfCells="45411">
<Points>
<DataArray  type="Float64"  NumberOfComponents="3"  format="ascii">0 0 0  5 0 0  5 1 0  0 1 0  1.5 0.2 0  1.3 0.6 0  1.7 0.6 0  0.09988181715350253 0 0  0.1997636343069831 0 0  0.2996454514604577 0 0  0.3995272686139624 0 0  0.4994090857674671 0 0  0.5992909029209642 0 0  0.6991727200743116 0 0  0.7977480796387948 0 0  0.8833077882008854 0 0  0.9552465290058831 0 0  1.015928428880551 0 0  1.06737033859586 0 0  1.111317272793253 0 0  1.14931422653285 0 0  1.182777857033489 0 0  1.213067364367625 0 0  1.241543873852857 0 0  1.269517245850398 0 0  1.297484154653317 0 0  1.325451063456236 0 0  1.353417972259155 0 0  1.381384881062075 0 0  1.409351789864994 0 0  1.437318698667913 0 0  1.465285607470832 0 0  1.493252516273751 0 0  1.521219425076671 0 0  1.54918633387959 0 0  1.577153242682509 0 0  1.605120151485428 0 0  1.633087060288348 0 0  1.661053969091267 0 0  1.689020877894186 0 0  1.716987786697105 0 0  1.744954695500025 0 0  1.772921604302944 0 0  1.800888513105863 0 0  1.828855421908782 0 0  1.856822330711702 0 0  1.884789239514621 0 0  1.91275614831754 0 0  1.940723057120459 0 0  1.968689965923379 0 0  1.996656874726308 0 0  2.02462378352929 0 0  2.052590692332318 0 0  2.080557601135361 0 0  2.108524509938404 0 0  2.136491418741448 0 0  2.164458327544491 0 0  2.192425236347535 0 0  2.220392145150578 0 0  2.248359053953621 0 0  2.276325962756665 0 0  2.304292871559708 0 0  2.332259780362751 0 0  2.360226689165795 0 0  2.388193597968838 0 0  2.416160506771881 0 0  2.444127415574925 0 0  2.472094324377968 0 0  2.500061233181011 0 0  2.528028141984055 0 0  2.555995050787098 0 0  2.583961959590142 0 0  2.611928868393185 0 0  2.639895777196228 0 0  2.667862685999272 0 0  2.695829594802315 0 0  2.723796503605358 0 0  2.751763412408402 0 0  2.779730321211445 0 0  2.807697230014488 0 0  2.835664138817531 0 0  2.863631047620574 0 0  2.891597956423618 0 0  2.919564865226662 0 0  2.947531774029705 0 0  2.975498682832749 0 0  3.003466037710658 0 0  3.031764566682743 0 0  3.061630572857904 0 0  3.094429607623581 0 0  3.13021238288224 0 0  3.166169837057582 0 0  3.202127291232924 0 0  3.238084745408265 0 0  3.274042199583607 0 0  3.309999653758949 0 0  3.34595710793429 0 0  3.381914562109632 0 0  3.417872016284973 0 0  3.453829470460315 0 0  3.489786924635657 0 0  3.525744378810998 0 0  3.56170183298634 0 0  3.597659287161681 0 0  3.633616741337023 0 0  3.669574195512365 0 0  3.705531649687707 0 0  3.741489103863048 0 0  3.77744655803839 0 0  3.813404012213732 0 0  3.849361466389073 0 0  3.885318920564415 0 0  3.921276374739756 0 0  3.957233828915097 0 0  3.993191283090439 0 0  4.02914873726578 0 0  4.065106191441122 0 0  4.101063645616464 0 0  4.137021099791806 0 0  4.172978553967147 0 0  4.208936008142489 0 0  4.24489346231783 0 0  4.280850916493172 0 0  4.316808370668514 0 0  4.352765824843855 0 0  4.388723279019197 0 0  4.424680733194538 0 0  4.46063818736988 0 0  4.496595641545222 0 0  4.532553095720563 0 0  4.568510549895905 0 0  4.604468004071246 0 0  4.640425458246588 0 0  4.676382912421929 0 0  4.712340366597271 0 0  4.748297820772613 0 0  4.784255274947953 0 0  4.820212729123295 0 0  4.856170183298635 0 0  4.892127637473977 0 0  4.928085091649318 0 0  4.964042545824659 0 0  5 0.0328500670419322 0  5 0.06090401573905966 0  5 0.08486207734983149 0  5 0.1054388876402908 0  5 0.1251669432582367 0  5 0.1448949988761606 0  5 0.1646230544940819 0  5 0.1843511101120033 0  5 0.2040791657299246 0  5 0.2238072213478459 0  5 0.2435352769657672 0  5 0.2632633325836884 0  5 0.2829913882016097 0  5 0.3027194438195311 0  5 0.3224474994374524 0  5 0.3421755550553737 0  5 0.3619036106732951 0  5 0.3816316662912164 0  5 0.4013597219091377 0  5 0.421087777527059 0  5 0.4408158331449803 0  5 0.4605438887629016 0  5 0.4802719443808229 0  5 0.4999999999987551 0  5 0.519728055616775 0  5 0.5394561112348057 0  5 0.5591841668528366 0  5 0.5789122224708674 0  5 0.5986402780888981 0  5 0.6183683337069288 0  5 0.6380963893249596 0  5 0.6578244449429903 0  5 0.6775525005610212 0  5 0.6972805561790519 0  5 0.7170086117970828 0  5 0.7367366674151135 0  5 0.7564647230331443 0  5 0.776192778651175 0  5 0.7959208342692058 0  5 0.8156488898872365 0  5 0.8353769455052672 0  5 0.855105001123298 0  5 0.8748330567413287 0  5 0.8945611123593595 0  5 0.9151379226498687 0  5 0.9390959842606995 0  5 0.9671499329579316 0  4.964042545824707 1 0  4.928085091649415 1 0  4.892127637474122 1 0  4.856170183298829 1 0  4.820212729123536 1 0  4.784255274948244 1 0  4.748297820772951 1 0  4.712340366597658 1 0  4.676382912422365 1 0  4.640425458247072 1 0  4.604468004071779 1 0  4.568510549896486 1 0  4.532553095721194 1 0  4.496595641545901 1 0  4.460638187370608 1 0  4.424680733195316 1 0  4.388723279020023 1 0  4.35276582484473 1 0  4.316808370669437 1 0  4.280850916494145 1 0  4.244893462318852 1 0  4.208936008143559 1 0  4.172978553968266 1 0  4.137021099792974 1 0  4.101063645617681 1 0  4.065106191442388 1 0  4.029148737267096 1 0  3.993191283091803 1 0  3.95723382891651 1 0  3.921276374741217 1 0  3.885318920565925 1 0  3.849361466390632 1 0  3.813404012215339 1 0  3.777446558040046 1 0  3.741489103864753 1 0  3.705531649689461 1 0  3.669574195514167 1 0  3.633616741338875 1 0  3.597659287163582 1 0  3.561701832988289 1 0  3.525744378812996 1 0  3.489786924637703 1 0  3.45382947046241 1 0  3.417872016287117 1 0  3.381914562111825 1 0  3.345957107936532 1 0  3.309999653761239 1 0  3.274042199585946 1 0  3.238084745410653 1 0  3.20212729123536 1 0  3.166169837060067 1 0  3.130212382884775 1 0  3.094429607626076 1 0  3.061630572860181 1 0  3.031764566684895 1 0  3.00346603771278 1 0  2.97549868283491 1 0  2.947531774031904 1 0  2.919564865228899 1 0  2.891597956425894 1 0  2.863631047622888 1 0  2.835664138819883 1 0  2.807697230016877 1 0  2.779730321213872 1 0  2.751763412410866 1 0  2.723796503607861 1 0  2.695829594804855 1 0  2.66786268600185 1 0  2.639895777198844 1 0  2.611928868395839 1 0  2.583961959592834 1 0  2.555995050789828 1 0  2.528028141986823 1 0  2.500061233183817 1 0  2.472094324380812 1 0  2.444127415577806 1 0  2.416160506774801 1 0  2.388193597971795 1 0  2.36022668916879 1 0  2.332259780365785 1 0  2.304292871562779 1 0  2.276325962759774 1 0  2.248359053956768 1 0  2.220392145153763 1 0  2.192425236350757 1 0  2.164458327547752 1 0  2.136491418744747 1 0  2.108524509941741 1 0  2.080557601138736 1 0  2.05259069233573 1 0  2.024623783532725 1 0  1.99665687472972 1 0  1.968689965926714 1 0  1.940723057123709 1 0  1.912756148320703 1 0  1.884789239517698 1 0  1.856822330714692 1 0  1.828855421911687 1 0  1.800888513108681 1 0  1.772921604305676 1 0  1.74495469550267 1 0  1.716987786699665 1 0  1.68902087789666 1 0  1.661053969093654 1 0  1.633087060290649 1 0  1.605120151487644 1 0  1.577153242684639 1 0  1.549186333881632 1 0  1.521219425078627 1 0  1.493252516275621 1 0  1.465285607472617 1 0  1.437318698669611 1 0  1.409351789866606 1 0  1.3813848810636 1 0  1.353417972260594 1 0  1.32545106345759 1 0  1.297484154654584 1 0  1.269517245851579 1 0  1.241543873853952 1 0  1.213067364368676 1 0  1.182777857034534 1 0  1.149314226533915 1 0  1.111317272794346 1 0  1.067370338596986 1 0  1.015928428881706 1 0  0.9552465290070451 1 0  0.8833077882020213 1 0  0.7977480796398604 1 0  0.6991727200751363 1 0  0.5992909029215436 1 0  0.4994090857679536 1 0  0.3995272686143618 1 0  0.2996454514607718 1 0  0.1997636343071827 1 0  0.09988181715359001 1 0  0 0.8999999999995836 0  0 0.7999999999999998 0  0 0.7000000000006934 0  0 0.6000000000013869 0  0 0.5000000000020587 0  0 0.4000000000016644 0  0 0.3000000000012483 0  0 0.2000000000008322 0  0 0.100000000000416 0  1.699751384242739 0.6099691771530924 0  1.699006155066563 0.6199135693842884 0  1.697766165232479 0.6298084533184788 0  1.696034497548046 0.6396292287470388 0  1.693815457209259 0.649351479681627 0  1.691114561101324 0.6589510350634165 0  1.687938524092297 0.6684040288434037 0  1.684295242284711 0.6776869594669508 0  1.680193773487681 0.6867767480162182 0  1.67564431456081 0.6956507959321996 0  1.670658176173392 0.7042870409263378 0  1.665247754668492 0.7126640118983073 0  1.659426501197733 0.720760882390984 0  1.653208888346202 0.7285575222681306 0  1.646610374031267 0.7360345479149025 0  1.639647363235856 0.7431733702239103 0  1.632337167092531 0.7499562409702357 0  1.62469795989353 0.756366296874971 0  1.616748733919558 0.7623876015223461 0  1.608509252208739 0.7680051849946904 0  1.599999999406289 0.7732050810996667 0  1.591242130860608 0.7779743620750351 0  1.582257419988525 0.7823011707500295 0  1.573068204170437 0.7861747500046861 0  1.563697329302744 0.7895854694846042 0  1.554168092871136 0.7925248496031199 0  1.544504185999879 0.7949855826169927 0  1.534729634727922 0.7969615507444667 0  1.524868740094186 0.7984478414247124 0  1.514946017836289 0.7994407595022575 0  1.504986137413824 0.7999378364234504 0  1.495013860716175 0.7999378363768156 0  1.485053980351481 0.7994407593664496 0  1.475131258156531 0.7984478412054987 0  1.465270363613604 0.7969615504520329 0  1.4554958123743 0.7949855822459098 0  1.445831905597438 0.7925248491722436 0  1.436302669250897 0.7895854689986533 0  1.426931794485273 0.786174749477091 0  1.417742578777908 0.7823011701934227 0  1.408757867959409 0.7779743614700931 0  1.399999999478033 0.7732050804555297 0  1.391490746737941 0.7680051843143844 0  1.383251265066765 0.7623876007935619 0  1.375302039213222 0.7563662961626294 0  1.367662832117841 0.7499562402733849 0  1.360352636037667 0.7431733695153243 0  1.353389625336735 0.736034547233771 0  1.346791111115898 0.7285575216270866 0  1.340573498342716 0.7207608817842938 0  1.33475224496031 0.7126640113538593 0  1.329341823531611 0.7042870404435957 0  1.324355685207748 0.6956507955072012 0  1.319806226317615 0.6867767476119111 0  1.315704757542792 0.6
[...]
<PointData  Scalars="Temperature"> 
<DataArray  type="Float64"  Name="Temperature"  format="ascii">2.7300000000000000e+02  2.7300000000000000e+02  2.7300000000000000e+02  2.7300000000000000e+02  3.4000000000000000e+02  3.4000000000000000e+02  3.4000000000000000e+02  2.7300000000000000e+02  2.7300000000000000e+02  2.7300000000000000e+02  2.7300000000000000e+02  2.7300000000000000e+02  2.7300000000000000e+02  2.7300000000000000e+02  2.7300000000000000e+02  2.7300000000000000e+02  2.7300000000000000e+02  2.7300000000000000e+02  2.7300000000000000e+02  2.7300000000000000e+02  2.7300000000000000e+02  2.7300000000000000e+02  2.7300000000000000e+02  2.7300000000000000e+02  2.7300000000000000e+02  2.7300000000000000e+02  2.7300000000000000e+02  2.7300000000000000e+02  2.7300000000000000e+02  2.7300000000000000e+02  2.7300000000000000e+02  2.7300000000000000e+02  2.7300000000000000e+02  2.7300000000000000e+02  2.7300000000000000e+02  2.7300000000000000e+02  2.7300000000000000e+02  2.7300000000000000e+02  2.7300000000000000e+02  2.7300000000000000e+02  2.7300000000000000e+02  2.7300000000000000e+02  2.7300000000000000e+02  2.7300000000000000e+02  2.7300000000000000e+02  2.7300000000000000e+02  2.7300000000000000e+02  2.7300000000000000e+02  2.7300000000000000e+02  2.7300000000000000e+02  2.7300000000000000e+02  2.7300000000000000e+02  2.7300000000000000e+02  2.7300000000000000e+02  2.7300000000000000e+02  2.7300000000000000e+02  2.7300000000000000e+02  2.7300000000000000e+02  2.7300000000000000e+02  2.7300000000000000e+02  2.7300000000000000e+02  2.7300000000000000e+02  2.7300000000000000e+02  2.7300000000000000e+02  2.7300000000000000e+02  2.7300000000000000e+02  2.7300000000000000e+02  2.7300000000000000e+02  2.7300000000000000e+02  2.7300000000000000e+02  2.7300000000000000e+02  2.7300000000000000e+02  2.7300000000000000e+02  2.7300000000000000e+02  2.7300000000000000e+02  2.7300000000000000e+02  2.7300000000000000e+02  2.7300000000000000e+02  2.7300000000000000e+02  2.7300000000000000e+02  2.7300000000000000e+02  2.7300000000000000e+02  2.7300000000000000e+02  2.7300000000000000e+02  2.7300000000000000e+02  2.7300000000000000e+02  2.7300000000000000e+02  2.7300000000000000e+02  2.7300000000000000e+02  2.7300000000000000e+02  2.7300000000000000e+02  2.7300000000000000e+02  2.7300000000000000e+02  2.7300000000000000e+02  2.7300000000000000e+02  2.7300000000000000e+02  2.7300000000000000e+02  2.7300000000000000e+02  2.7300000000000000e+02  2.7300000000000000e+02  2.7300000000000000e+02  2.7300000000000000e+02  2.7300000000000000e+02  2.7300000000000000e+02  2.7300000000000000e+02  2.7300000000000000e+02  2.7300000000000000e+02  2.7300000000000000e+02  2.7300000000000000e+02  2.7300000000000000e+02  2.7300000000000000e+02  2.7300000000000000e+02  2.7300000000000000e+02  2.7300000000000000e+02  2.7300000000000000e+02  2.7300000000000000e+02  2.7300000000000000e+02  2.7300000000000000e+02  2.7300000000000000e+02  2.7300000000000000e+02  2.7300000000000000e+02  2.7300000000000000e+02  2.7300000000000000e+02  2.7300000000000000e+02  2.7300000000000000e+02  2.7300000000000000e+02  2.7300000000000000e+02  2.7300000000000000e+02  2.7300000000000000e+02  2.7300000000000000e+02  2.7300000000000000e+02  2.7300000000000000e+02  2.7300000000000000e+02  2.7300000000000000e+02  2.7300000000000000e+02  2.7300000000000000e+02  2.7300000000000000e+02  2.7300000000000000e+02  2.7300000000000000e+02  2.7300000000000000e+02  2.7300000000000000e+02  2.7300000000000000e+02  2.7300000000000000e+02  2.7300000000000000e+02  2.7300000000000000e+02  2.7300000000000000e+02  2.7300000000000000e+02  2.7300000000000000e+02  2.7300000000000000e+02  2.7300000000000000e+02  2.7300000000000000e+02  2.7300000000000000e+02  2.7300000000000000e+02  2.7300000000000000e+02  2.7300000000000000e+02  2.7300000000000000e+02  2.7300000000000000e+02  2.7300000000000000e+02  2.7300000000000000e+02  2.7300000000000000e+02  2.7300000000000000e+02  2.7300000000000000e+02  2.7300000000000000e+02  2.7300000000000000e+02  2.7300000000000000e+02  2.7300000000000000e+02  2.7300000000000000e+02  2.7300000000000000e+02  2.7300000000000000e+02  2.7300000000000000e+02  2.7300000000000000e+02  2.7300000000000000e+02  2.7300000000000000e+02  2.7300000000000000e+02  2.7300000000000000e+02  2.7300000000000000e+02  2.7300000000000000e+02  2.7300000000000000e+02  2.7300000000000000e+02  2.7300000000000000e+02  2.7300000000000000e+02  2.7300000000000000e+02  2.7300000000000000e+02  2.7300000000000000e+02  2.7300000000000000e+02  2.7300000000000000e+02  2.7300000000000000e+02  2.7300000000000000e+02  2.7300000000000000e+02  2.7300000000000000e+02  2.7300000000000000e+02  2.7300000000000000e+02  2.7300000000000000e+02  2.7300000000000000e+02  2.7300000000000000e+02  2.7300000000000000e+02  2.7300000000000000e+02  2.7300000000000000e+02  2.7300000000000000e+02  2.7300000000000000e+02  2.7300000000000000e+02  2.7300000000000000e+02  2.7300000000000000e+02  2.7300000000000000e+02  2.7300000000000000e+02  2.7300000000000000e+02  2.7300000000000000e+02  2.7300000000000000e+02  2.7300000000000000e+02  2.7300000000000000e+02  2.7300000000000000e+02  2.7300000000000000e+02  2.7300000000000000e+02  2.7300000000000000e+02  2.7300000000000000e+02  2.7300000000000000e+02  2.7300000000000000e+02  2.7300000000000000e+02  2.7300000000000000e+02  2.7300000000000000e+02  2.7300000000000000e+02  2.7300000000000000e+02  2.7300000000000000e+02  2.7300000000000000e+02  2.7300000000000000e+02  2.7300000000000000e+02  2.7300000000000000e+02  2.7300000000000000e+02  2.7300000000000000e+02  2.7300000000000000e+02  2.7300000000000000e+02  2.7300000000000000e+02  2.7300000000000000e+02  2.7300000000000000e+02  2.7300000000000000e+02  2.7300000000000000e+02  2.7300000000000000e+02  2.7300000000000000e+02  2.7300000000000000e+02  2.7300000000000000e+02  2.7300000000000000e+02  2.7300000000000000e+02  2.7300000000000000e+02  2.7300000000000000e+02  2.7300000000000000e+02  2.7300000000000000e+02  2.7300000000000000e+02  2.7300000000000000e+02  2.7300000000000000e+02  2.7300000000000000e+02  2.7300000000000000e+02  2.7300000000000000e+02  2.7300000000000000e+02  2.7300000000000000e+02  2.7300000000000000e+02  2.7300000000000000e+02  2.7300000000000000e+02  2.7300000000000000e+02  2.7300000000000000e+02  2.7300000000000000e+02  2.7300000000000000e+02  2.7300000000000000e+02  2.7300000000000000e+02  2.7300000000000000e+02  2.7300000000000000e+02  2.7300000000000000e+02  2.7300000000000000e+02  2.7300000000000000e+02  2.7300000000000000e+02  2.7300000000000000e+02  2.7300000000000000e+02  2.7300000000000000e+02  2.7300000000000000e+02  2.7300000000000000e+02  2.7300000000000000e+02  2.7300000000000000e+02  2.7300000000000000e+02  2.7300000000000000e+02  2.7300000000000000e+02  2.7300000000000000e+02  2.7300000000000000e+02  2.7300000000000000e+02  2.7300000000000000e+02  2.7300000000000000e+02  2.7300000000000000e+02  2.7300000000000000e+02  2.7300000000000000e+02  2.7300000000000000e+02  2.7300000000000000e+02  2.7300000000000000e+02  2.7300000000000000e+02  2.7300000000000000e+02  2.7300000000000000e+02  2.7300000000000000e+02  2.7300000000000000e+02  2.7300000000000000e+02  2.7300000000000000e+02  2.7300000000000000e+02  2.7300000000000000e+02  2.7300000000000000e+02  2.7300000000000000e+02  2.7300000000000000e+02  2.7300000000000000e+02  2.7300000000000000e+02  2.7300000000000000e+02  2.7300000000000000e+02  2.7300000000000000e+02  2.7300000000000000e+02  2.7300000000000000e+02  2.7300000000000000e+02  2.7300000000000000e+02  2.7300000000000000e+02  2.7300000000000000e+02  2.7300000000000000e+02  2.7300000000000000e+02  2.7300000000000000e+02  2.7300000000000000e+02  2.7300000000000000e+02  2.7300000000000000e+02  2.7300000000000000e+02  2.7300000000000000e+02  2.7300000000000000e+02  2.7300000000000000e+02  2.7300000000000000e+02  2.7300000000000000e+02  2.7300000000000000e+02  2.7300000000000000e+02  2.7300000000000000e+02  2.7300000000000000e+02  2.7300000000000000e+02  2.7300000000000000e+02  2.7300000000000000e+02  2.7300000000000000e+02  3.4000000000000000e+02  3.4000000000000000e+02  3.4000000000000000e+02  3.4000000000000000e+02  3.4000000000000000e+02  3.4000000000000000e+02  3.4000000000000000e+02  3.4000000000000000e+02  3.4000000000000000e+02  3.4000000000000000e+02  3.4000000000000000e+02  3.4000000000000000e+02  3.4000000000000000e+02  3.4000000000000000e+02  3.4000000000000000e+02  3.4000000000000000e+02  3.4000000000000000e+02  3.4000000000000000e+02  3.4000000000000000e+02  3.4000000000000000e+02  3.4000000000000000e+02  3.4000000000000000e+02  3.4000000000000000e+02  3.4000000000000000e+02  3.4000000000000000e+02  3.4000000000000000e+02  3.4000000000000000e+02  3.4000000000000000e+02  3.4000000000000000e+02  3.4000000000000000e+02  3.4000000000000000e+02  3.4000000000000000e+02  3.4000000000000000e+02  3.4000000000000000e+02  3.4000000000000000e+02  3.4000000000000000e+02  3.4000000000000000e+02  3.4000000000000000e+02  3.4000000000000000e+02  3.4000000000000000e+02  3.4000000000000000e+02  3.4000000000000000e+02  3.4000000000000000e+02  3.4000000000000000e+02  3.4000000000000000e+02  3.4000000000000000e+02  3.4000000000000000e+02  3.4000000000000000e+02  3.4000000000000000e+02  3.4000000000000000e+02  3.4000000000000000e+02  3.4000000000000000e+02  3.4000000000000000e+02  3.4000000000000000e+02  3.4000000000000000e+02  3.4000000000000000e+02  3.4000000000000000e+02  3.4000000000000000e+02  3.4000000000000000e+02  3.4000000000000000e+02  3.4000000000000000e+02  3.4000000000000000e+02  3.4000000000000000e+02  3.4000000000000000e+02  3.4000000000000000e+02  3.4000000000000000e+02  3.4000000000000000e+02  3.4000000000000000e+02  3.4000000000000000e+02  3.4000000000000000e+02  3.4000000000000000e+02  3.4000000000000000e+02  3.4000000000000000e+02  3.4000000000000000e+02  3.4000000000000000e+02  3.4000000000000000e+02  3.4000000000000000e+02  3.4000000000000000e+02  3.4000000000000000e+02  3.4000000000000000e+02  3.4000000000000000e+02  3.4000000000000000e+02  3.4000000000000000e+02  3.4000000000000000e+02  3.4000000000000000e+02  3.4000000000000000e+02  3.4000000000000000e+02  3.4000000000000000e+02  3.4000000000000000e+02  3.4000000000000000e+02  3.4000000000000000e+02  3.4000000000000000e+02  3.4000000000000000e+02  3.4000000000000000e+02  3.4000000000000000e+02  3.4000000000000000e+02  3.4000000000000000e+02  3.4000000000000000e+02  3.4000000000000000e+02  3.4000000000000000e+02  3.4000000000000000e+02  3.4000000000000000e+02  3.4000000000000000e+02  3.4000000000000000e+02  3.4000000000000000e+02  3.4000000000000000e+02  3.4000000000000000e+02  3.4000000000000000e+02  3.4000000000000000e+02  3.4000000000000000e+02  3.4000000000000000e+02  3.4000000000000000e+02  3.4000000000000000e+02  3.4000000000000000e+02  3.4000000000000000e+02  3.4000000000000000e+02  3.4000000000000000e+02  3.4000000000000000e+02  3.4000000000000000e+02  3.4000000000000000e+02  3.4000000000000000e+02  3.4000000000000000e+02  3.4000000000000000e+02  3.4000000000000000e+02  3.4000000000000000e+02  3.4000000000000000e+02  3.4000000000000000e+02  3.4000000000000000e+02  3.4000000000000000e+02  3.4000000000000000e+02  3.4000000000000000e+02  3.4000000000000000e+02  3.4000000000000000e+02  3.4000000000000000e+02  3.4000000000000000e+02  3.4000000000000000e+02  3.4000000000000000e+02  3.4000000000000000e+02  3.4000000000000000e+02  3.4000000000000000e+02  3.4000000000000000e+02  3.4000000000000000e+02  3.4000000000000000e+02  3.4000000000000000e+02  3.4000000000000000e+02  3.4000000000000000e+02  3.4000000000000000e+02  3.4000000000000000e+02  3.4000000000000000e+02  3.4000000000000000e+02  3.2802474373242688e+02  3.2905127185048570e+02  3.3081464153304194e+02  3.2744428824068797e+02  2.7299969127481450e+02  2.7299974085356803e+02  3.3275770841388811e+02  3.3457248522363682e+02  2.8376445538016225e+02  3.3246378575680353e+02  3.3520874237555171e+02  2.7300074643562112e+02  2.7300377280274284e+02  2.7300021413317018e+02  2.7300083453163148e+02  2.7299992201957826e+02  2.7300014540057651e+02  2.7301189510816869e+02  2.7299943827955502e+02  3.2607844705003083e+02  3.2448244092594649e+02  3.1838980969535936e+02  3.2582070256909424e+02  3.2343552648905586e+02  2.7728537606749131e+02  2.7300154244575117e+02  2.7300047159176353e+02  2.7300004902653495e+02  2.7300082425000721e+02  2.7313891857506263e+02  2.7305671975278267e+02  2.9172523635462335e+02  2.7299962474181785e+02  3.2486957063304612e+02  3.2137117271024988e+02  3.1410569539914837e+02  3.3543350779289472e+02  3.3512399608579653e+02  3.3466365335492077e+02  2.7483608921132725e+02  2.7304146614393784e+02  2.7300494097638165e+02  2.7304161439150886e+02  2.7300911994169076e+02  2.7303191049908480e+02  2.7300831131504657e+02  2.7309429025964772e+02  2.7302782312007849e+02  2.7312036939203148e+02  2.7299947304283864e+02  3.1584907565518199e+02  3.1803980782916761e+02  3.1527893257178818e+02  3.3636475364201993e+02  2.7299942136256448e+02  2.8744907818642622e+02  2.7299995012804828e+02  2.7308787083210626e+02  2.7312510172512748e+02  2.7299921534245101e+02  3.1591482688470813e+02  2.7302586415038201e+02  2.7299984606622166e+02  2.7306090216422433e+02  2.7301777803712525e+02  2.7305509250371767e+02  2.7301629802151007e+02  2.7300602643310503e+02  2.7300171074993210e+02  2.7300870102640351e+02  3.2376202662101917e+02  2.7935615903948110e+02  2.7408747663622427e+02  2.7299995704143276e+02  3.3630320930848035e+02  3.1855868443446366e+02  2.7299989712083374e+02  2.7299991564773114e+02  2.7299932825350794e+02  3.3500508106791324e+02  3.1764299944014402e+02  3.3281908245621094e+02  3.2768788174386037e+02  3.2715339063690527e+02  3.2452035519726405e+02  3.2185069301513272e+02  3.1935592916734703e+02  2.7299987132188306e+02  2.7299941517879830e+02  2.7299982354702411e+02  2.7299926000322898e+02  2.7299981026316101e+02  2.7299965918729680e+02  2.7312405024222511e+02  2.7308994797458723e+02  2.7300040901880323e+02  2.7299992386960514e+02  2.7300763365533317e+02  2.7312589406600136e+02  2.7303687231144932e+02  2.7299948297446872e+02  3.2833879778084878e+02  3.2971352993798291e+02  3.3176561321436895e+02  3.2555814879264915e+02  3.3372120869961475e+02  3.2516909726720024e+02  3.2758303331072779e+02  2.7530019602280407e+02  2.8948157036482115e+02  2.7372618575127944e+02  2.7986816711343334e+02  2.7299995248780556e+02  2.7299923283150434e+02  2.7299946390893746e+02  2.7299993757411443e+02  2.7299953988370743e+02  2.7299908928112694e+02  2.7299999918135052e+02  2.7299930733743429e+02  2.7344387875170582e+02  2.7299995007913600e+02  2.7299990289868646e+02  3.3491876193051240e+02  3.3682718020086804e+02  3.3610164818790884e+02  3.3046523635212895e+02  3.1708372161968765e+02  3.1730245575935351e+02  3.1795337120448471e+02  3.1593555848538250e+02  3.1753990425843301e+02  2.7299995677038635e+02  2.7313530303953314e+02  2.7300079555779200e+02  2.7301722608603524e+02  2.7299993026105989e+02  2.7299953623197524e+02  2.7299949695491836e+02  2.7300142649671778e+02  2.7300033893271603e+02  2.7300129332261082e+02  2.7299970288220209e+02  2.7300057256180833e+02  2.7299982067424315e+02  2.7300034188800822e+02  2.7300011654105032e+02  2.7299942735091253e+02  2.7299921490519193e+02  2.7299996183874151e+02  2.7299988401807008e+02  2.7299950785452057e+02  2.7299902746406855e+02  2.7299935226458120e+02  2.7299950385442986e+02  2.7308177831947012e+02  2.7304332454607635e+02  2.7313251183665699e+02  2.7303414819591825e+02  2.7304594561120871e+02  2.7314343835981737e+02  2.7302019354631028e+02  2.7303390780072743e+02  2.7305453554530845e+02  2.7311786432129117e+02  2.7312824813358446e+02  2.7300079358993202e+02  2.7300571656171439e+02  2.7306467551342496e+02  2.7302211255086763e+02  2.7301004875789073e+02  2.7300990327656478e+02  2.7300341091975190e+02  2.7308276729137611e+02  2.7303461607583671e+02  2.7301012430810255e+02  2.7300843674845811e+02  2.7299994879235311e+02  2.7299999990479574e+02  3.2868238598828236e+02  3.3023518731674415e+02  3.2463206760502965e+02  3.2410094665938300e+02  3.2162555507146089e+02  3.2481870701142094e+02  3.3458352300001235e+02  3.2360488658951749e+02  3.2166938228350216e+02  3.3497438687433868e+02  3.2121427545599596e+02  3.2606382416947952e+02  3.0742911709505381e+02  3.1508749152204120e+02  2.9492944239497194e+02  2.8709976217559188e+02  2.8028083834588040e+02  2.7710356501491771e+02  2.7460225329517255e+02  2.7375754227307726e+02  2.7327350770397447e+02  2.7501402591760831e+02  2.7311701949997513e+02  2.7302001726604578e+02  2.7306348312335291e+02  2.7300858263606159e+02  2.7301675644308671e+02  2.7299968844995379e+02  2.7300168895681009e+02  2.7299968516049847e+02  2.7300003001500392e+02  2.7299958520792495e+02  2.7299952367393297e+02  2.7299954289597753e+02  2.7299964078826389e+02  2.7299962821541914e+02  2.7299962623194853e+02  2.7299962012455569e+02  2.7299968035071163e+02  2.7299968819877847e+02  2.7299969062431228e+02  2.7299969480740191e+02  2.7299972863577750e+02  2.7299972835696497e+02  2.7299974743149772e+02  2.7299975675634823e+02  2.7299977287792433e+02  2.7299977331099007e+02  2.7299979350365277e+02  2.7299980110123619e+02  2.7299981306407363e+02  2.7299980888946948e+02  2.7299983721745321e+02  2.7299985111994022e+02  2.7299984878937374e+02  2.7299984750482986e+02  2.7299986698788382e+02  2.7299987509773467e+02  2.7299988035423007e+02  2.7299988354295016e+02  2.7299989860528706e+02  2.7299990599044736e+02  2.7299991065125306e+02  2.7299990546885857e+02  2.7299991970957115e+02  2.7299992600452646e+02  2.7299993170937643e+02  2.7299993767526962e+02  2.7299994399990879e+02  2.7299995025404053e+02  2.7299995495046420e+02  2.7299996117395176e+02  2.7299996553796450e+02  2.7299997178325845e+02  2.7299997531321844e+02  2.7299998154849567e+02  2.7299998452882323e+02  2.7299999072514447e+02  2.7299999302093892e+02  2.7299998705437287e+02  2.7299999925524190e+02  2.7300000102128547e+02  2.7300000721777110e+02  2.7300000861939623e+02  2.7300001466186717e+02  2.7300001562746712e+02  2.7300002156177493e+02  2.7300002221797416e+02  2.7300002796864175e+02  2.7300002798144612e+02  2.7299994887682817e+02  2.7300001629158191e+02  2.7300002746777534e+02  2.7300003374781494e+02  2.7299999696241736e+02  2.7300003330638611e+02  2.7300003945860851e+02  2.7299995661692827e+02  2.7300004048895511e+02  2.7300004580777670e+02  2.7300007532354834e+02  2.7300006910828245e+02  2.7300005097482864e+02  2.7300006642038755e+02  2.7300005587274416e+02  2.7300006630923048e+02  2.7300006044474077e+02  2.7300006793373484e+02  2.7300006476385602e+02  2.7300007062752360e+02  2.7300006845318768e+02  2.7300011458899451e+02  2.7300009646981374e+02  2.7299979137681044e+02  2.7299988653408872e+02  2.7299986125595052e+02  2.7299991378869692e+02  2.7300027394202755e+02  2.7300051065678394e+02  2.7300032586225086e+02  2.7299980147618436e+02  2.7300306964086235e+02  2.7300192597025500e+02  2.7300021142756918e+02  2.7300115413562690e+02  2.7300014644571809e+02  2.7300066343173899e+02  2.7300011312730936e+02  2.7300037246625567e+02  2.7300009821444354e+02  2.7300201696986898e+02  2.7300027082186290e+02  2.7299958042220288e+02  2.7299962958827786e+02  2.7300005999211612e+02  2.7300008571410524e+02  2.7300389192040063e+02  2.7300217244511236e+02  2.7301580998776757e+02  2.7302298898494689e+02  2.7301954901409221e+02  2.7301165844966096e+02  2.7309282642186599e+02  2.7312480542117623e+02  2.7299960579444456e+02  2.7299964090895912e+02  2.7300542095687251e+02  2.7308112189222493e+02  2.7305167523562596e+02  2.7300648283945759e+02  2.7303090436096852e+02  2.7300331488900201e+02  2.7301711451661487e+02  2.7300151435049725e+02  2.7299960698415379e+02  2.7299965028012963e+02  2.7340705715532727e+02  2.7351425538565167e+02  2.7299963547934072e+02  2.7299958685268024e+02  2.7299965944924077e+02  2.7299967521113194e+02  2.7299968471736946e+02  2.7299970102756208e+02  2.7299970415186561e+02  2.7299972426915832e+02  2.7299973105988249e+02  2.729