<?xml version="1.0"?>
<VTKFile type="UnstructuredGrid"  version="0.1"  >
<UnstructuredGrid>
<Piece  NumberOfPoints="22947" NumberOfCells="45411">
<Points>
<DataArray  type="Float64"  NumberOfComponents="3"  format="ascii">0 0 0  5 0 0  5 1 0  0 1 0  1.5 0.2 0  1.3 0.6 0  1.7 0.6 0  0.09988181715350253 0 0  0.1997636343069831 0 0  0.2996454514604577 0 0  0.3995272686139624 0 0  0.4994090857674671 0 0  0.5992909029209642 0 0  0.6991727200743116 0 0  0.7977480796387948 0 0  0.8833077882008854 0 0  0.9552465290058831 0 0  1.015928428880551 0 0  1.06737033859586 0 0  1.111317272793253 0 0  1.14931422653285 0 0  1.182777857033489 0 0  1.213067364367625 0 0  1.241543873852857 0 0  1.269517245850398 0 0  1.297484154653317 0 0  1.325451063456236 0 0  1.353417972259155 0 0  1.381384881062075 0 0  1.409351789864994 0 0  1.437318698667913 0 0  1.465285607470832 0 0  1.493252516273751 0 0  1.521219425076671 0 0  1.54918633387959 0 0  1.577153242682509 0 0  1.605120151485428 0 0  1.633087060288348 0 0  1.661053969091267 0 0  1.689020877894186 0 0  1.716987786697105 0 0  1.744954695500025 0 0  1.772921604302944 0 0  1.800888513105863 0 0  1.828855421908782 0 0  1.856822330711702 0 0  1.884789239514621 0 0  1.91275614831754 0 0  1.940723057120459 0 0  1.968689965923379 0 0  1.996656874726308 0 0  2.02462378352929 0 0  2.052590692332318 0 0  2.080557601135361 0 0  2.108524509938404 0 0  2.136491418741448 0 0  2.164458327544491 0 0  2.192425236347535 0 0  2.220392145150578 0 0  2.248359053953621 0 0  2.276325962756665 0 0  2.304292871559708 0 0  2.332259780362751 0 0  2.360226689165795 0 0  2.388193597968838 0 0  2.416160506771881 0 0  2.444127415574925 0 0  2.472094324377968 0 0  2.500061233181011 0 0  2.528028141984055 0 0  2.555995050787098 0 0  2.583961959590142 0 0  2.611928868393185 0 0  2.639895777196228 0 0  2.667862685999272 0 0  2.695829594802315 0 0  2.723796503605358 0 0  2.751763412408402 0 0  2.779730321211445 0 0  2.807697230014488 0 0  2.835664138817531 0 0  2.863631047620574 0 0  2.891597956423618 0 0  2.919564865226662 0 0  2.947531774029705 0 0  2.975498682832749 0 0  3.003466037710658 0 0  3.031764566682743 0 0  3.061630572857904 0 0  3.094429607623581 0 0  3.13021238288224 0 0  3.166169837057582 0 0  3.202127291232924 0 0  3.238084745408265 0 0  3.274042199583607 0 0  3.309999653758949 0 0  3.34595710793429 0 0  3.381914562109632 0 0  3.417872016284973 0 0  3.453829470460315 0 0  3.489786924635657 0 0  3.525744378810998 0 0  3.56170183298634 0 0  3.597659287161681 0 0  3.633616741337023 0 0  3.669574195512365 0 0  3.705531649687707 0 0  3.741489103863048 0 0  3.77744655803839 0 0  3.813404012213732 0 0  3.849361466389073 0 0  3.885318920564415 0 0  3.921276374739756 0 0  3.957233828915097 0 0  3.993191283090439 0 0  4.02914873726578 0 0  4.065106191441122 0 0  4.101063645616464 0 0  4.137021099791806 0 0  4.172978553967147 0 0  4.208936008142489 0 0  4.24489346231783 0 0  4.280850916493172 0 0  4.316808370668514 0 0  4.352765824843855 0 0  4.388723279019197 0 0  4.424680733194538 0 0  4.46063818736988 0 0  4.496595641545222 0 0  4.532553095720563 0 0  4.568510549895905 0 0  4.604468004071246 0 0  4.640425458246588 0 0  4.676382912421929 0 0  4.712340366597271 0 0  4.748297820772613 0 0  4.784255274947953 0 0  4.820212729123295 0 0  4.856170183298635 0 0  4.892127637473977 0 0  4.928085091649318 0 0  4.964042545824659 0 0  5 0.0328500670419322 0  5 0.06090401573905966 0  5 0.08486207734983149 0  5 0.1054388876402908 0  5 0.1251669432582367 0  5 0.1448949988761606 0  5 0.1646230544940819 0  5 0.1843511101120033 0  5 0.2040791657299246 0  5 0.2238072213478459 0  5 0.2435352769657672 0  5 0.2632633325836884 0  5 0.2829913882016097 0  5 0.3027194438195311 0  5 0.3224474994374524 0  5 0.3421755550553737 0  5 0.3619036106732951 0  5 0.3816316662912164 0  5 0.4013597219091377 0  5 0.421087777527059 0  5 0.4408158331449803 0  5 0.4605438887629016 0  5 0.4802719443808229 0  5 0.4999999999987551 0  5 0.519728055616775 0  5 0.5394561112348057 0  5 0.5591841668528366 0  5 0.5789122224708674 0  5 0.5986402780888981 0  5 0.6183683337069288 0  5 0.6380963893249596 0  5 0.6578244449429903 0  5 0.6775525005610212 0  5 0.6972805561790519 0  5 0.7170086117970828 0  5 0.7367366674151135 0  5 0.7564647230331443 0  5 0.776192778651175 0  5 0.7959208342692058 0  5 0.8156488898872365 0  5 0.8353769455052672 0  5 0.855105001123298 0  5 0.8748330567413287 0  5 0.8945611123593595 0  5 0.9151379226498687 0  5 0.9390959842606995 0  5 0.9671499329579316 0  4.964042545824707 1 0  4.928085091649415 1 0  4.892127637474122 1 0  4.856170183298829 1 0  4.820212729123536 1 0  4.784255274948244 1 0  4.748297820772951 1 0  4.712340366597658 1 0  4.676382912422365 1 0  4.640425458247072 1 0  4.604468004071779 1 0  4.568510549896486 1 0  4.532553095721194 1 0  4.496595641545901 1 0  4.460638187370608 1 0  4.424680733195316 1 0  4.388723279020023 1 0  4.35276582484473 1 0  4.316808370669437 1 0  4.280850916494145 1 0  4.244893462318852 1 0  4.208936008143559 1 0  4.172978553968266 1 0  4.137021099792974 1 0  4.101063645617681 1 0  4.065106191442388 1 0  4.029148737267096 1 0  3.993191283091803 1 0  3.95723382891651 1 0  3.921276374741217 1 0  3.885318920565925 1 0  3.849361466390632 1 0  3.813404012215339 1 0  3.777446558040046 1 0  3.741489103864753 1 0  3.705531649689461 1 0  3.669574195514167 1 0  3.633616741338875 1 0  3.597659287163582 1 0  3.561701832988289 1 0  3.525744378812996 1 0  3.489786924637703 1 0  3.45382947046241 1 0  3.417872016287117 1 0  3.381914562111825 1 0  3.345957107936532 1 0  3.309999653761239 1 0  3.274042199585946 1 0  3.238084745410653 1 0  3.20212729123536 1 0  3.166169837060067 1 0  3.130212382884775 1 0  3.094429607626076 1 0  3.061630572860181 1 0  3.031764566684895 1 0  3.00346603771278 1 0  2.97549868283491 1 0  2.947531774031904 1 0  2.919564865228899 1 0  2.891597956425894 1 0  2.863631047622888 1 0  2.835664138819883 1 0  2.807697230016877 1 0  2.779730321213872 1 0  2.751763412410866 1 0  2.723796503607861 1 0  2.695829594804855 1 0  2.66786268600185 1 0  2.639895777198844 1 0  2.611928868395839 1 0  2.583961959592834 1 0  2.555995050789828 1 0  2.528028141986823 1 0  2.500061233183817 1 0  2.472094324380812 1 0  2.444127415577806 1 0  2.416160506774801 1 0  2.388193597971795 1 0  2.36022668916879 1 0  2.332259780365785 1 0  2.304292871562779 1 0  2.276325962759774 1 0  2.248359053956768 1 0  2.220392145153763 1 0  2.192425236350757 1 0  2.164458327547752 1 0  2.136491418744747 1 0  2.108524509941741 1 0  2.080557601138736 1 0  2.05259069233573 1 0  2.024623783532725 1 0  1.99665687472972 1 0  1.968689965926714 1 0  1.940723057123709 1 0  1.912756148320703 1 0  1.884789239517698 1 0  1.856822330714692 1 0  1.828855421911687 1 0  1.800888513108681 1 0  1.772921604305676 1 0  1.74495469550267 1 0  1.716987786699665 1 0  1.68902087789666 1 0  1.661053969093654 1 0  1.633087060290649 1 0  1.605120151487644 1 0  1.577153242684639 1 0  1.549186333881632 1 0  1.521219425078627 1 0  1.493252516275621 1 0  1.465285607472617 1 0  1.437318698669611 1 0  1.409351789866606 1 0  1.3813848810636 1 0  1.353417972260594 1 0  1.32545106345759 1 0  1.297484154654584 1 0  1.269517245851579 1 0  1.241543873853952 1 0  1.213067364368676 1 0  1.182777857034534 1 0  1.149314226533915 1 0  1.111317272794346 1 0  1.067370338596986 1 0  1.015928428881706 1 0  0.9552465290070451 1 0  0.8833077882020213 1 0  0.7977480796398604 1 0  0.6991727200751363 1 0  0.5992909029215436 1 0  0.4994090857679536 1 0  0.3995272686143618 1 0  0.2996454514607718 1 0  0.1997636343071827 1 0  0.09988181715359001 1 0  0 0.8999999999995836 0  0 0.7999999999999998 0  0 0.7000000000006934 0  0 0.6000000000013869 0  0 0.5000000000020587 0  0 0.4000000000016644 0  0 0.3000000000012483 0  0 0.2000000000008322 0  0 0.100000000000416 0  1.699751384242739 0.6099691771530924 0  1.699006155066563 0.6199135693842884 0  1.697766165232479 0.6298084533184788 0  1.696034497548046 0.6396292287470388 0  1.693815457209259 0.649351479681627 0  1.691114561101324 0.6589510350634165 0  1.687938524092297 0.6684040288434037 0  1.684295242284711 0.6776869594669508 0  1.680193773487681 0.6867767480162182 0  1.67564431456081 0.6956507959321996 0  1.670658176173392 0.7042870409263378 0  1.665247754668492 0.7126640118983073 0  1.659426501197733 0.720760882390984 0  1.653208888346202 0.7285575222681306 0  1.646610374031267 0.7360345479149025 0  1.639647363235856 0.7431733702239103 0  1.632337167092531 0.7499562409702357 0  1.62469795989353 0.756366296874971 0  1.616748733919558 0.7623876015223461 0  1.608509252208739 0.7680051849946904 0  1.599999999406289 0.7732050810996667 0  1.591242130860608 0.7779743620750351 0  1.582257419988525 0.7823011707500295 0  1.573068204170437 0.7861747500046861 0  1.563697329302744 0.7895854694846042 0  1.554168092871136 0.7925248496031199 0  1.544504185999879 0.7949855826169927 0  1.534729634727922 0.7969615507444667 0  1.524868740094186 0.7984478414247124 0  1.514946017836289 0.7994407595022575 0  1.504986137413824 0.7999378364234504 0  1.495013860716175 0.7999378363768156 0  1.485053980351481 0.7994407593664496 0  1.475131258156531 0.7984478412054987 0  1.465270363613604 0.7969615504520329 0  1.4554958123743 0.7949855822459098 0  1.445831905597438 0.7925248491722436 0  1.436302669250897 0.7895854689986533 0  1.426931794485273 0.786174749477091 0  1.417742578777908 0.7823011701934227 0  1.408757867959409 0.7779743614700931 0  1.399999999478033 0.7732050804555297 0  1.391490746737941 0.7680051843143844 0  1.383251265066765 0.7623876007935619 0  1.375302039213222 0.7563662961626294 0  1.367662832117841 0.7499562402733849 0  1.360352636037667 0.7431733695153243 0  1.353389625336735 0.736034547233771 0  1.346791111115898 0.7285575216270866 0  1.340573498342716 0.7207608817842938 0  1.33475224496031 0.7126640113538593 0  1.329341823531611 0.7042870404435957 0  1.324355685207748 0.6956507955072012 0  1.319806226317615 0.6867767476119111 0  1.315704757542792 0.6
[...]
<PointData  Scalars="Temperature"> 
<DataArray  type="Float64"  Name="Temperature"  format="ascii">2.7300000000000000e+02  2.7300000000000000e+02  2.7300000000000000e+02  2.7300000000000000e+02  3.4000000000000000e+02  3.4000000000000000e+02  3.4000000000000000e+02  2.7300000000000000e+02  2.7300000000000000e+02  2.7300000000000000e+02  2.7300000000000000e+02  2.7300000000000000e+02  2.7300000000000000e+02  2.7300000000000000e+02  2.7300000000000000e+02  2.7300000000000000e+02  2.7300000000000000e+02  2.7300000000000000e+02  2.7300000000000000e+02  2.7300000000000000e+02  2.7300000000000000e+02  2.7300000000000000e+02  2.7300000000000000e+02  2.7300000000000000e+02  2.7300000000000000e+02  2.7300000000000000e+02  2.7300000000000000e+02  2.7300000000000000e+02  2.7300000000000000e+02  2.7300000000000000e+02  2.7300000000000000e+02  2.7300000000000000e+02  2.7300000000000000e+02  2.7300000000000000e+02  2.7300000000000000e+02  2.7300000000000000e+02  2.7300000000000000e+02  2.7300000000000000e+02  2.7300000000000000e+02  2.7300000000000000e+02  2.7300000000000000e+02  2.7300000000000000e+02  2.7300000000000000e+02  2.7300000000000000e+02  2.7300000000000000e+02  2.7300000000000000e+02  2.7300000000000000e+02  2.7300000000000000e+02  2.7300000000000000e+02  2.7300000000000000e+02  2.7300000000000000e+02  2.7300000000000000e+02  2.7300000000000000e+02  2.7300000000000000e+02  2.7300000000000000e+02  2.7300000000000000e+02  2.7300000000000000e+02  2.7300000000000000e+02  2.7300000000000000e+02  2.7300000000000000e+02  2.7300000000000000e+02  2.7300000000000000e+02  2.7300000000000000e+02  2.7300000000000000e+02  2.7300000000000000e+02  2.7300000000000000e+02  2.7300000000000000e+02  2.7300000000000000e+02  2.7300000000000000e+02  2.7300000000000000e+02  2.7300000000000000e+02  2.7300000000000000e+02  2.7300000000000000e+02  2.7300000000000000e+02  2.7300000000000000e+02  2.7300000000000000e+02  2.7300000000000000e+02  2.7300000000000000e+02  2.7300000000000000e+02  2.7300000000000000e+02  2.7300000000000000e+02  2.7300000000000000e+02  2.7300000000000000e+02  2.7300000000000000e+02  2.7300000000000000e+02  2.7300000000000000e+02  2.7300000000000000e+02  2.7300000000000000e+02  2.7300000000000000e+02  2.7300000000000000e+02  2.7300000000000000e+02  2.7300000000000000e+02  2.7300000000000000e+02  2.7300000000000000e+02  2.7300000000000000e+02  2.7300000000000000e+02  2.7300000000000000e+02  2.7300000000000000e+02  2.7300000000000000e+02  2.7300000000000000e+02  2.7300000000000000e+02  2.7300000000000000e+02  2.7300000000000000e+02  2.7300000000000000e+02  2.7300000000000000e+02  2.7300000000000000e+02  2.7300000000000000e+02  2.7300000000000000e+02  2.7300000000000000e+02  2.7300000000000000e+02  2.7300000000000000e+02  2.7300000000000000e+02  2.7300000000000000e+02  2.7300000000000000e+02  2.7300000000000000e+02  2.7300000000000000e+02  2.7300000000000000e+02  2.7300000000000000e+02  2.7300000000000000e+02  2.7300000000000000e+02  2.7300000000000000e+02  2.7300000000000000e+02  2.7300000000000000e+02  2.7300000000000000e+02  2.7300000000000000e+02  2.7300000000000000e+02  2.7300000000000000e+02  2.7300000000000000e+02  2.7300000000000000e+02  2.7300000000000000e+02  2.7300000000000000e+02  2.7300000000000000e+02  2.7300000000000000e+02  2.7300000000000000e+02  2.7300000000000000e+02  2.7300000000000000e+02  2.7300000000000000e+02  2.7300000000000000e+02  2.7300000000000000e+02  2.7300000000000000e+02  2.7300000000000000e+02  2.7300000000000000e+02  2.7300000000000000e+02  2.7300000000000000e+02  2.7300000000000000e+02  2.7300000000000000e+02  2.7300000000000000e+02  2.7300000000000000e+02  2.7300000000000000e+02  2.7300000000000000e+02  2.7300000000000000e+02  2.7300000000000000e+02  2.7300000000000000e+02  2.7300000000000000e+02  2.7300000000000000e+02  2.7300000000000000e+02  2.7300000000000000e+02  2.7300000000000000e+02  2.7300000000000000e+02  2.7300000000000000e+02  2.7300000000000000e+02  2.7300000000000000e+02  2.7300000000000000e+02  2.7300000000000000e+02  2.7300000000000000e+02  2.7300000000000000e+02  2.7300000000000000e+02  2.7300000000000000e+02  2.7300000000000000e+02  2.7300000000000000e+02  2.7300000000000000e+02  2.7300000000000000e+02  2.7300000000000000e+02  2.7300000000000000e+02  2.7300000000000000e+02  2.7300000000000000e+02  2.7300000000000000e+02  2.7300000000000000e+02  2.7300000000000000e+02  2.7300000000000000e+02  2.7300000000000000e+02  2.7300000000000000e+02  2.7300000000000000e+02  2.7300000000000000e+02  2.7300000000000000e+02  2.7300000000000000e+02  2.7300000000000000e+02  2.7300000000000000e+02  2.7300000000000000e+02  2.7300000000000000e+02  2.7300000000000000e+02  2.7300000000000000e+02  2.7300000000000000e+02  2.7300000000000000e+02  2.7300000000000000e+02  2.7300000000000000e+02  2.7300000000000000e+02  2.7300000000000000e+02  2.7300000000000000e+02  2.7300000000000000e+02  2.7300000000000000e+02  2.7300000000000000e+02  2.7300000000000000e+02  2.7300000000000000e+02  2.7300000000000000e+02  2.7300000000000000e+02  2.7300000000000000e+02  2.7300000000000000e+02  2.7300000000000000e+02  2.7300000000000000e+02  2.7300000000000000e+02  2.7300000000000000e+02  2.7300000000000000e+02  2.7300000000000000e+02  2.7300000000000000e+02  2.7300000000000000e+02  2.7300000000000000e+02  2.7300000000000000e+02  2.7300000000000000e+02  2.7300000000000000e+02  2.7300000000000000e+02  2.7300000000000000e+02  2.7300000000000000e+02  2.7300000000000000e+02  2.7300000000000000e+02  2.7300000000000000e+02  2.7300000000000000e+02  2.7300000000000000e+02  2.7300000000000000e+02  2.7300000000000000e+02  2.7300000000000000e+02  2.7300000000000000e+02  2.7300000000000000e+02  2.7300000000000000e+02  2.7300000000000000e+02  2.7300000000000000e+02  2.7300000000000000e+02  2.7300000000000000e+02  2.7300000000000000e+02  2.7300000000000000e+02  2.7300000000000000e+02  2.7300000000000000e+02  2.7300000000000000e+02  2.7300000000000000e+02  2.7300000000000000e+02  2.7300000000000000e+02  2.7300000000000000e+02  2.7300000000000000e+02  2.7300000000000000e+02  2.7300000000000000e+02  2.7300000000000000e+02  2.7300000000000000e+02  2.7300000000000000e+02  2.7300000000000000e+02  2.7300000000000000e+02  2.7300000000000000e+02  2.7300000000000000e+02  2.7300000000000000e+02  2.7300000000000000e+02  2.7300000000000000e+02  2.7300000000000000e+02  2.7300000000000000e+02  2.7300000000000000e+02  2.7300000000000000e+02  2.7300000000000000e+02  2.7300000000000000e+02  2.7300000000000000e+02  2.7300000000000000e+02  2.7300000000000000e+02  2.7300000000000000e+02  2.7300000000000000e+02  2.7300000000000000e+02  2.7300000000000000e+02  2.7300000000000000e+02  2.7300000000000000e+02  2.7300000000000000e+02  2.7300000000000000e+02  2.7300000000000000e+02  2.7300000000000000e+02  2.7300000000000000e+02  2.7300000000000000e+02  2.7300000000000000e+02  2.7300000000000000e+02  2.7300000000000000e+02  2.7300000000000000e+02  2.7300000000000000e+02  2.7300000000000000e+02  2.7300000000000000e+02  2.7300000000000000e+02  2.7300000000000000e+02  2.7300000000000000e+02  2.7300000000000000e+02  2.7300000000000000e+02  2.7300000000000000e+02  2.7300000000000000e+02  2.7300000000000000e+02  2.7300000000000000e+02  2.7300000000000000e+02  2.7300000000000000e+02  2.7300000000000000e+02  2.7300000000000000e+02  2.7300000000000000e+02  2.7300000000000000e+02  2.7300000000000000e+02  2.7300000000000000e+02  2.7300000000000000e+02  2.7300000000000000e+02  2.7300000000000000e+02  2.7300000000000000e+02  2.7300000000000000e+02  2.7300000000000000e+02  2.7300000000000000e+02  2.7300000000000000e+02  2.7300000000000000e+02  2.7300000000000000e+02  2.7300000000000000e+02  2.7300000000000000e+02  2.7300000000000000e+02  2.7300000000000000e+02  2.7300000000000000e+02  2.7300000000000000e+02  2.7300000000000000e+02  2.7300000000000000e+02  2.7300000000000000e+02  2.7300000000000000e+02  2.7300000000000000e+02  2.7300000000000000e+02  2.7300000000000000e+02  2.7300000000000000e+02  2.7300000000000000e+02  2.7300000000000000e+02  2.7300000000000000e+02  2.7300000000000000e+02  3.4000000000000000e+02  3.4000000000000000e+02  3.4000000000000000e+02  3.4000000000000000e+02  3.4000000000000000e+02  3.4000000000000000e+02  3.4000000000000000e+02  3.4000000000000000e+02  3.4000000000000000e+02  3.4000000000000000e+02  3.4000000000000000e+02  3.4000000000000000e+02  3.4000000000000000e+02  3.4000000000000000e+02  3.4000000000000000e+02  3.4000000000000000e+02  3.4000000000000000e+02  3.4000000000000000e+02  3.4000000000000000e+02  3.4000000000000000e+02  3.4000000000000000e+02  3.4000000000000000e+02  3.4000000000000000e+02  3.4000000000000000e+02  3.4000000000000000e+02  3.4000000000000000e+02  3.4000000000000000e+02  3.4000000000000000e+02  3.4000000000000000e+02  3.4000000000000000e+02  3.4000000000000000e+02  3.4000000000000000e+02  3.4000000000000000e+02  3.4000000000000000e+02  3.4000000000000000e+02  3.4000000000000000e+02  3.4000000000000000e+02  3.4000000000000000e+02  3.4000000000000000e+02  3.4000000000000000e+02  3.4000000000000000e+02  3.4000000000000000e+02  3.4000000000000000e+02  3.4000000000000000e+02  3.4000000000000000e+02  3.4000000000000000e+02  3.4000000000000000e+02  3.4000000000000000e+02  3.4000000000000000e+02  3.4000000000000000e+02  3.4000000000000000e+02  3.4000000000000000e+02  3.4000000000000000e+02  3.4000000000000000e+02  3.4000000000000000e+02  3.4000000000000000e+02  3.4000000000000000e+02  3.4000000000000000e+02  3.4000000000000000e+02  3.4000000000000000e+02  3.4000000000000000e+02  3.4000000000000000e+02  3.4000000000000000e+02  3.4000000000000000e+02  3.4000000000000000e+02  3.4000000000000000e+02  3.4000000000000000e+02  3.4000000000000000e+02  3.4000000000000000e+02  3.4000000000000000e+02  3.4000000000000000e+02  3.4000000000000000e+02  3.4000000000000000e+02  3.4000000000000000e+02  3.4000000000000000e+02  3.4000000000000000e+02  3.4000000000000000e+02  3.4000000000000000e+02  3.4000000000000000e+02  3.4000000000000000e+02  3.4000000000000000e+02  3.4000000000000000e+02  3.4000000000000000e+02  3.4000000000000000e+02  3.4000000000000000e+02  3.4000000000000000e+02  3.4000000000000000e+02  3.4000000000000000e+02  3.4000000000000000e+02  3.4000000000000000e+02  3.4000000000000000e+02  3.4000000000000000e+02  3.4000000000000000e+02  3.4000000000000000e+02  3.4000000000000000e+02  3.4000000000000000e+02  3.4000000000000000e+02  3.4000000000000000e+02  3.4000000000000000e+02  3.4000000000000000e+02  3.4000000000000000e+02  3.4000000000000000e+02  3.4000000000000000e+02  3.4000000000000000e+02  3.4000000000000000e+02  3.4000000000000000e+02  3.4000000000000000e+02  3.4000000000000000e+02  3.4000000000000000e+02  3.4000000000000000e+02  3.4000000000000000e+02  3.4000000000000000e+02  3.4000000000000000e+02  3.4000000000000000e+02  3.4000000000000000e+02  3.4000000000000000e+02  3.4000000000000000e+02  3.4000000000000000e+02  3.4000000000000000e+02  3.4000000000000000e+02  3.4000000000000000e+02  3.4000000000000000e+02  3.4000000000000000e+02  3.4000000000000000e+02  3.4000000000000000e+02  3.4000000000000000e+02  3.4000000000000000e+02  3.4000000000000000e+02  3.4000000000000000e+02  3.4000000000000000e+02  3.4000000000000000e+02  3.4000000000000000e+02  3.4000000000000000e+02  3.4000000000000000e+02  3.4000000000000000e+02  3.4000000000000000e+02  3.4000000000000000e+02  3.4000000000000000e+02  3.4000000000000000e+02  3.4000000000000000e+02  3.4000000000000000e+02  3.4000000000000000e+02  3.4000000000000000e+02  3.4000000000000000e+02  3.4000000000000000e+02  3.4000000000000000e+02  3.4000000000000000e+02  3.4000000000000000e+02  3.4000000000000000e+02  3.4000000000000000e+02  3.2823108617996883e+02  3.2944180591247454e+02  3.3115613647362397e+02  3.2742567461718352e+02  2.7299965797471918e+02  2.7299970881779262e+02  3.3292567210926882e+02  3.3455739030827158e+02  2.9108187905316993e+02  3.3226492557663903e+02  3.3490934558562634e+02  2.7300137278198872e+02  2.7300544028794314e+02  2.7300004305533395e+02  2.7300064327817580e+02  2.7299990236163353e+02  2.7300013224777172e+02  2.7300663313536739e+02  2.7299940294905014e+02  3.2607475401659525e+02  3.2448520663564022e+02  3.1839915617578072e+02  3.2581171666269995e+02  3.2341932031570497e+02  2.8410709416349914e+02  2.7300228821282235e+02  2.7300056513978404e+02  2.7299996624792465e+02  2.7300301573296599e+02  2.7309466117767016e+02  2.7303468730366711e+02  2.8655925107550695e+02  2.7299960493312494e+02  3.2485038666817491e+02  3.2134244496637325e+02  3.1406260190154978e+02  3.3535143377114093e+02  3.3507025772052151e+02  3.3459206901240111e+02  2.7741279881353205e+02  2.7301688325872061e+02  2.7300518703120014e+02  2.7304683900110285e+02  2.7300510976935209e+02  2.7308079821341545e+02  2.7301774184886187e+02  2.7305675545801711e+02  2.7303063035831167e+02  2.7304674450786831e+02  2.7299948235329578e+02  3.1584811754908139e+02  3.1804679221123644e+02  3.1529432406742876e+02  3.3617235132828756e+02  2.7299941122735078e+02  2.7826190517061735e+02  2.7299995053333640e+02  2.7304559973146604e+02  2.7311449985785708e+02  2.7299918082677391e+02  3.1593681081288980e+02  2.7300521911962977e+02  2.7299981974420604e+02  2.7308507364150762e+02  2.7308019180918018e+02  2.7303697003199227e+02  2.7302542435273705e+02  2.7300232505668077e+02  2.7300484399386636e+02  2.7301132517542504e+02  3.2376883905617416e+02  2.7488963094496728e+02  2.7487206991833813e+02  2.7299995746702899e+02  3.3625910834800140e+02  3.1858288421502579e+02  2.7299989733047812e+02  2.7299991539475946e+02  2.7299932700918851e+02  3.3496697980434635e+02  3.1767222716551549e+02  3.3279618066468299e+02  3.2767612538741810e+02  3.2715577679217279e+02  3.2453392538066117e+02  3.2187263090842367e+02  3.1938367257111366e+02  2.7299987121981292e+02  2.7299941585949335e+02  2.7299982394346603e+02  2.7299926146320871e+02  2.7299981067049060e+02  2.7299966026508633e+02  2.7313953716618107e+02  2.7305294840980673e+02  2.7300037348333990e+02  2.7299990290858261e+02  2.7300645343245594e+02  2.7302095224445549e+02  2.7302848841351010e+02  2.7299948113691016e+02  3.2866814539733258e+02  3.3010870661091951e+02  3.3202950902848659e+02  3.2554653739736352e+02  3.3379073840778489e+02  3.2516783718424745e+02  3.2757749457840242e+02  2.7387134476073226e+02  2.9149650069350008e+02  2.7401232567547697e+02  2.8830424861190971e+02  2.7299995272243319e+02  2.7299923483813694e+02  2.7299946632303528e+02  2.7299993746818234e+02  2.7299953499338613e+02  2.7299909348304209e+02  2.7299999918480364e+02  2.7299931132127119e+02  2.7352561995796572e+02  2.7299995014951440e+02  2.7299990268118955e+02  3.3469948509779169e+02  3.3673649989122191e+02  3.3583710965161362e+02  3.3033615757647107e+02  3.1709481100260120e+02  3.1733186367451100e+02  3.1797567787327449e+02  3.1593841989541545e+02  3.1755712610579837e+02  2.7299995722349377e+02  2.7307098945355415e+02  2.7300190814501792e+02  2.7300625211402678e+02  2.7299993063658133e+02  2.7299951314669960e+02  2.7299949031317942e+02  2.7300312192133168e+02  2.7300032226968477e+02  2.7300111938212763e+02  2.7299967912745348e+02  2.7300091530852097e+02  2.7299979425057484e+02  2.7300026180037952e+02  2.7299998614779054e+02  2.7299942426931841e+02  2.7299921896455311e+02  2.7299993280622203e+02  2.7299986101427669e+02  2.7299949269370524e+02  2.7299899219792974e+02  2.7299934327948239e+02  2.7299950286441964e+02  2.7308155250138600e+02  2.7302284224686235e+02  2.7307673907437913e+02  2.7305733186571348e+02  2.7308501502491998e+02  2.7311473928235802e+02  2.7309345310439471e+02  2.7300888855489444e+02  2.7304500614584879e+02  2.7314382413086622e+02  2.7312990104666522e+02  2.7300429077083055e+02  2.7300382176575295e+02  2.7303469873333233e+02  2.7302853157669341e+02  2.7300906284021738e+02  2.7300364553844247e+02  2.7300541041533955e+02  2.7304392958728158e+02  2.7303260755628753e+02  2.7301950378481774e+02  2.7301594463470633e+02  2.7299994875209211e+02  2.7299999990121171e+02  3.2905022889225631e+02  3.3061164447864769e+02  3.2461526390796928e+02  3.2407910193254736e+02  3.2159514603560604e+02  3.2481944903203629e+02  3.3452504926208348e+02  3.2360982557421295e+02  3.2167857471746186e+02  3.3497171899377560e+02  3.2123904079638993e+02  3.2610154391698143e+02  3.0746011764082050e+02  3.1515517739859968e+02  2.9490486151078125e+02  2.8708014264534648e+02  2.8025100597073794e+02  2.7708398148541829e+02  2.7458767782923775e+02  2.7374907753288670e+02  2.7326984229557712e+02  2.7500217649272031e+02  2.7311541317500496e+02  2.7301925226449498e+02  2.7306193657825349e+02  2.7300844967235378e+02  2.7301637604798242e+02  2.7299962788159746e+02  2.7300158195044457e+02  2.7299967488068188e+02  2.7300001851574575e+02  2.7299958717496611e+02  2.7299951679164957e+02  2.7299953981103283e+02  2.7299964203649932e+02  2.7299962850874311e+02  2.7299962487893777e+02  2.7299961783953592e+02  2.7299968090794329e+02  2.7299968759971097e+02  2.7299969003036927e+02  2.7299969446917248e+02  2.7299972908948757e+02  2.7299972859307820e+02  2.7299974754585804e+02  2.7299975664845067e+02  2.7299977335590285e+02  2.7299977387360673e+02  2.7299979400039251e+02  2.7299980165922057e+02  2.7299981368487016e+02  2.7299980913314073e+02  2.7299983801831672e+02  2.7299985227205099e+02  2.7299984935497298e+02  2.7299984826884423e+02  2.7299986789249652e+02  2.7299987613973474e+02  2.7299988114420262e+02  2.7299988415544061e+02  2.7299989959825200e+02  2.7299990706036084e+02  2.7299991150362860e+02  2.7299990639173205e+02  2.7299992070562178e+02  2.7299992700141780e+02  2.7299993266450792e+02  2.7299993859218705e+02  2.7299994499212846e+02  2.7299995122809281e+02  2.7299995591946725e+02  2.7299996211839090e+02  2.7299996651189758e+02  2.7299997273449958e+02  2.7299997627140459e+02  2.7299998248447844e+02  2.7299998547547307e+02  2.7299999164923094e+02  2.7299999395066607e+02  2.7299998800599923e+02  2.7300000016194264e+02  2.7300000193166352e+02  2.7300000810489121e+02  2.7300000950697944e+02  2.7300001552616743e+02  2.7300001649068406e+02  2.7300002240187513e+02  2.7300002305443570e+02  2.7300002878193726e+02  2.7300002879153226e+02  2.7299994987210192e+02  2.7300001715172863e+02  2.7300002828524657e+02  2.7300003453778680e+02  2.7299999786407403e+02  2.7300003409958634e+02  2.7300004022487894e+02  2.7299995756961783e+02  2.7300004118383572e+02  2.7300004650566819e+02  2.7300007515529154e+02  2.7300006923860951e+02  2.7300005166721758e+02  2.7300006675502971e+02  2.7300005654843562e+02  2.7300006676762939e+02  2.7300006109727525e+02  2.7300006845837316e+02  2.7300006538691241e+02  2.7300007117540883e+02  2.7300006904739706e+02  2.7300011412959395e+02  2.7300009645496954e+02  2.7299979193631265e+02  2.7299988680691189e+02  2.7299986213845779e+02  2.7299991479529331e+02  2.7300027017469336e+02  2.7300050453428923e+02  2.7300032239143121e+02  2.7299979992928974e+02  2.7300303930272423e+02  2.7300190692886486e+02  2.7300020966688709e+02  2.7300114278980118e+02  2.7300014572364438e+02  2.7300065709491213e+02  2.7300011299546890e+02  2.7300036923106882e+02  2.7300009839598778e+02  2.7300160538616188e+02  2.7300029748245032e+02  2.7299957945720337e+02  2.7299962934009147e+02  2.7300006063793626e+02  2.7300008510691646e+02  2.7300386443561467e+02  2.7300215674595529e+02  2.7301570031366845e+02  2.7302282831464549e+02  2.7301946218833109e+02  2.7301160639188544e+02  2.7309238146649233e+02  2.7312418984545013e+02  2.7299960523001698e+02  2.7299964093139550e+02  2.7300522939015235e+02  2.7308091531463958e+02  2.7305154981087117e+02  2.7300645313758724e+02  2.7303083160816277e+02  2.7300329897017104e+02  2.7301707434787915e+02  2.7300150642299764e+02  2.7299960608856617e+02  2.7299965026388361e+02  2.7340569833707133e+02  2.7351245541827410e+02  2.7299963571605821e+02  2.7299958571642537e+02  2.7299965954181721e+02  2.7299967530213354e+02  2.7299968496230485e+02  2.7299970133848495e+02  2.7299970431834180e+02  2.7299972479909343e+02  2.7299973177692709e+02  2.729