<?xml version="1.0"?>
<VTKFile type="UnstructuredGrid"  version="0.1"  >
<UnstructuredGrid>
<Piece  NumberOfPoints="22947" NumberOfCells="45411">
<Points>
<DataArray  type="Float64"  NumberOfComponents="3"  format="ascii">0 0 0  5 0 0  5 1 0  0 1 0  1.5 0.2 0  1.3 0.6 0  1.7 0.6 0  0.09988181715350253 0 0  0.1997636343069831 0 0  0.2996454514604577 0 0  0.3995272686139624 0 0  0.4994090857674671 0 0  0.5992909029209642 0 0  0.6991727200743116 0 0  0.7977480796387948 0 0  0.8833077882008854 0 0  0.9552465290058831 0 0  1.015928428880551 0 0  1.06737033859586 0 0  1.111317272793253 0 0  1.14931422653285 0 0  1.182777857033489 0 0  1.213067364367625 0 0  1.241543873852857 0 0  1.269517245850398 0 0  1.297484154653317 0 0  1.325451063456236 0 0  1.353417972259155 0 0  1.381384881062075 0 0  1.409351789864994 0 0  1.437318698667913 0 0  1.465285607470832 0 0  1.493252516273751 0 0  1.521219425076671 0 0  1.54918633387959 0 0  1.577153242682509 0 0  1.605120151485428 0 0  1.633087060288348 0 0  1.661053969091267 0 0  1.689020877894186 0 0  1.716987786697105 0 0  1.744954695500025 0 0  1.772921604302944 0 0  1.800888513105863 0 0  1.828855421908782 0 0  1.856822330711702 0 0  1.884789239514621 0 0  1.91275614831754 0 0  1.940723057120459 0 0  1.968689965923379 0 0  1.996656874726308 0 0  2.02462378352929 0 0  2.052590692332318 0 0  2.080557601135361 0 0  2.108524509938404 0 0  2.136491418741448 0 0  2.164458327544491 0 0  2.192425236347535 0 0  2.220392145150578 0 0  2.248359053953621 0 0  2.276325962756665 0 0  2.304292871559708 0 0  2.332259780362751 0 0  2.360226689165795 0 0  2.388193597968838 0 0  2.416160506771881 0 0  2.444127415574925 0 0  2.472094324377968 0 0  2.500061233181011 0 0  2.528028141984055 0 0  2.555995050787098 0 0  2.583961959590142 0 0  2.611928868393185 0 0  2.639895777196228 0 0  2.667862685999272 0 0  2.695829594802315 0 0  2.723796503605358 0 0  2.751763412408402 0 0  2.779730321211445 0 0  2.807697230014488 0 0  2.835664138817531 0 0  2.863631047620574 0 0  2.891597956423618 0 0  2.919564865226662 0 0  2.947531774029705 0 0  2.975498682832749 0 0  3.003466037710658 0 0  3.031764566682743 0 0  3.061630572857904 0 0  3.094429607623581 0 0  3.13021238288224 0 0  3.166169837057582 0 0  3.202127291232924 0 0  3.238084745408265 0 0  3.274042199583607 0 0  3.309999653758949 0 0  3.34595710793429 0 0  3.381914562109632 0 0  3.417872016284973 0 0  3.453829470460315 0 0  3.489786924635657 0 0  3.525744378810998 0 0  3.56170183298634 0 0  3.597659287161681 0 0  3.633616741337023 0 0  3.669574195512365 0 0  3.705531649687707 0 0  3.741489103863048 0 0  3.77744655803839 0 0  3.813404012213732 0 0  3.849361466389073 0 0  3.885318920564415 0 0  3.921276374739756 0 0  3.957233828915097 0 0  3.993191283090439 0 0  4.02914873726578 0 0  4.065106191441122 0 0  4.101063645616464 0 0  4.137021099791806 0 0  4.172978553967147 0 0  4.208936008142489 0 0  4.24489346231783 0 0  4.280850916493172 0 0  4.316808370668514 0 0  4.352765824843855 0 0  4.388723279019197 0 0  4.424680733194538 0 0  4.46063818736988 0 0  4.496595641545222 0 0  4.532553095720563 0 0  4.568510549895905 0 0  4.604468004071246 0 0  4.640425458246588 0 0  4.676382912421929 0 0  4.712340366597271 0 0  4.748297820772613 0 0  4.784255274947953 0 0  4.820212729123295 0 0  4.856170183298635 0 0  4.892127637473977 0 0  4.928085091649318 0 0  4.964042545824659 0 0  5 0.0328500670419322 0  5 0.06090401573905966 0  5 0.08486207734983149 0  5 0.1054388876402908 0  5 0.1251669432582367 0  5 0.1448949988761606 0  5 0.1646230544940819 0  5 0.1843511101120033 0  5 0.2040791657299246 0  5 0.2238072213478459 0  5 0.2435352769657672 0  5 0.2632633325836884 0  5 0.2829913882016097 0  5 0.3027194438195311 0  5 0.3224474994374524 0  5 0.3421755550553737 0  5 0.3619036106732951 0  5 0.3816316662912164 0  5 0.4013597219091377 0  5 0.421087777527059 0  5 0.4408158331449803 0  5 0.4605438887629016 0  5 0.4802719443808229 0  5 0.4999999999987551 0  5 0.519728055616775 0  5 0.5394561112348057 0  5 0.5591841668528366 0  5 0.5789122224708674 0  5 0.5986402780888981 0  5 0.6183683337069288 0  5 0.6380963893249596 0  5 0.6578244449429903 0  5 0.6775525005610212 0  5 0.6972805561790519 0  5 0.7170086117970828 0  5 0.7367366674151135 0  5 0.7564647230331443 0  5 0.776192778651175 0  5 0.7959208342692058 0  5 0.8156488898872365 0  5 0.8353769455052672 0  5 0.855105001123298 0  5 0.8748330567413287 0  5 0.8945611123593595 0  5 0.9151379226498687 0  5 0.9390959842606995 0  5 0.9671499329579316 0  4.964042545824707 1 0  4.928085091649415 1 0  4.892127637474122 1 0  4.856170183298829 1 0  4.820212729123536 1 0  4.784255274948244 1 0  4.748297820772951 1 0  4.712340366597658 1 0  4.676382912422365 1 0  4.640425458247072 1 0  4.604468004071779 1 0  4.568510549896486 1 0  4.532553095721194 1 0  4.496595641545901 1 0  4.460638187370608 1 0  4.424680733195316 1 0  4.388723279020023 1 0  4.35276582484473 1 0  4.316808370669437 1 0  4.280850916494145 1 0  4.244893462318852 1 0  4.208936008143559 1 0  4.172978553968266 1 0  4.137021099792974 1 0  4.101063645617681 1 0  4.065106191442388 1 0  4.029148737267096 1 0  3.993191283091803 1 0  3.95723382891651 1 0  3.921276374741217 1 0  3.885318920565925 1 0  3.849361466390632 1 0  3.813404012215339 1 0  3.777446558040046 1 0  3.741489103864753 1 0  3.705531649689461 1 0  3.669574195514167 1 0  3.633616741338875 1 0  3.597659287163582 1 0  3.561701832988289 1 0  3.525744378812996 1 0  3.489786924637703 1 0  3.45382947046241 1 0  3.417872016287117 1 0  3.381914562111825 1 0  3.345957107936532 1 0  3.309999653761239 1 0  3.274042199585946 1 0  3.238084745410653 1 0  3.20212729123536 1 0  3.166169837060067 1 0  3.130212382884775 1 0  3.094429607626076 1 0  3.061630572860181 1 0  3.031764566684895 1 0  3.00346603771278 1 0  2.97549868283491 1 0  2.947531774031904 1 0  2.919564865228899 1 0  2.891597956425894 1 0  2.863631047622888 1 0  2.835664138819883 1 0  2.807697230016877 1 0  2.779730321213872 1 0  2.751763412410866 1 0  2.723796503607861 1 0  2.695829594804855 1 0  2.66786268600185 1 0  2.639895777198844 1 0  2.611928868395839 1 0  2.583961959592834 1 0  2.555995050789828 1 0  2.528028141986823 1 0  2.500061233183817 1 0  2.472094324380812 1 0  2.444127415577806 1 0  2.416160506774801 1 0  2.388193597971795 1 0  2.36022668916879 1 0  2.332259780365785 1 0  2.304292871562779 1 0  2.276325962759774 1 0  2.248359053956768 1 0  2.220392145153763 1 0  2.192425236350757 1 0  2.164458327547752 1 0  2.136491418744747 1 0  2.108524509941741 1 0  2.080557601138736 1 0  2.05259069233573 1 0  2.024623783532725 1 0  1.99665687472972 1 0  1.968689965926714 1 0  1.940723057123709 1 0  1.912756148320703 1 0  1.884789239517698 1 0  1.856822330714692 1 0  1.828855421911687 1 0  1.800888513108681 1 0  1.772921604305676 1 0  1.74495469550267 1 0  1.716987786699665 1 0  1.68902087789666 1 0  1.661053969093654 1 0  1.633087060290649 1 0  1.605120151487644 1 0  1.577153242684639 1 0  1.549186333881632 1 0  1.521219425078627 1 0  1.493252516275621 1 0  1.465285607472617 1 0  1.437318698669611 1 0  1.409351789866606 1 0  1.3813848810636 1 0  1.353417972260594 1 0  1.32545106345759 1 0  1.297484154654584 1 0  1.269517245851579 1 0  1.241543873853952 1 0  1.213067364368676 1 0  1.182777857034534 1 0  1.149314226533915 1 0  1.111317272794346 1 0  1.067370338596986 1 0  1.015928428881706 1 0  0.9552465290070451 1 0  0.8833077882020213 1 0  0.7977480796398604 1 0  0.6991727200751363 1 0  0.5992909029215436 1 0  0.4994090857679536 1 0  0.3995272686143618 1 0  0.2996454514607718 1 0  0.1997636343071827 1 0  0.09988181715359001 1 0  0 0.8999999999995836 0  0 0.7999999999999998 0  0 0.7000000000006934 0  0 0.6000000000013869 0  0 0.5000000000020587 0  0 0.4000000000016644 0  0 0.3000000000012483 0  0 0.2000000000008322 0  0 0.100000000000416 0  1.699751384242739 0.6099691771530924 0  1.699006155066563 0.6199135693842884 0  1.697766165232479 0.6298084533184788 0  1.696034497548046 0.6396292287470388 0  1.693815457209259 0.649351479681627 0  1.691114561101324 0.6589510350634165 0  1.687938524092297 0.6684040288434037 0  1.684295242284711 0.6776869594669508 0  1.680193773487681 0.6867767480162182 0  1.67564431456081 0.6956507959321996 0  1.670658176173392 0.7042870409263378 0  1.665247754668492 0.7126640118983073 0  1.659426501197733 0.720760882390984 0  1.653208888346202 0.7285575222681306 0  1.646610374031267 0.7360345479149025 0  1.639647363235856 0.7431733702239103 0  1.632337167092531 0.7499562409702357 0  1.62469795989353 0.756366296874971 0  1.616748733919558 0.7623876015223461 0  1.608509252208739 0.7680051849946904 0  1.599999999406289 0.7732050810996667 0  1.591242130860608 0.7779743620750351 0  1.582257419988525 0.7823011707500295 0  1.573068204170437 0.7861747500046861 0  1.563697329302744 0.7895854694846042 0  1.554168092871136 0.7925248496031199 0  1.544504185999879 0.7949855826169927 0  1.534729634727922 0.7969615507444667 0  1.524868740094186 0.7984478414247124 0  1.514946017836289 0.7994407595022575 0  1.504986137413824 0.7999378364234504 0  1.495013860716175 0.7999378363768156 0  1.485053980351481 0.7994407593664496 0  1.475131258156531 0.7984478412054987 0  1.465270363613604 0.7969615504520329 0  1.4554958123743 0.7949855822459098 0  1.445831905597438 0.7925248491722436 0  1.436302669250897 0.7895854689986533 0  1.426931794485273 0.786174749477091 0  1.417742578777908 0.7823011701934227 0  1.408757867959409 0.7779743614700931 0  1.399999999478033 0.7732050804555297 0  1.391490746737941 0.7680051843143844 0  1.383251265066765 0.7623876007935619 0  1.375302039213222 0.7563662961626294 0  1.367662832117841 0.7499562402733849 0  1.360352636037667 0.7431733695153243 0  1.353389625336735 0.736034547233771 0  1.346791111115898 0.7285575216270866 0  1.340573498342716 0.7207608817842938 0  1.33475224496031 0.7126640113538593 0  1.329341823531611 0.7042870404435957 0  1.324355685207748 0.6956507955072012 0  1.319806226317615 0.6867767476119111 0  1.315704757542792 0.6
[...]
<PointData  Scalars="Temperature"> 
<DataArray  type="Float64"  Name="Temperature"  format="ascii">2.7300000000000000e+02  2.7300000000000000e+02  2.7300000000000000e+02  2.7300000000000000e+02  3.4000000000000000e+02  3.4000000000000000e+02  3.4000000000000000e+02  2.7300000000000000e+02  2.7300000000000000e+02  2.7300000000000000e+02  2.7300000000000000e+02  2.7300000000000000e+02  2.7300000000000000e+02  2.7300000000000000e+02  2.7300000000000000e+02  2.7300000000000000e+02  2.7300000000000000e+02  2.7300000000000000e+02  2.7300000000000000e+02  2.7300000000000000e+02  2.7300000000000000e+02  2.7300000000000000e+02  2.7300000000000000e+02  2.7300000000000000e+02  2.7300000000000000e+02  2.7300000000000000e+02  2.7300000000000000e+02  2.7300000000000000e+02  2.7300000000000000e+02  2.7300000000000000e+02  2.7300000000000000e+02  2.7300000000000000e+02  2.7300000000000000e+02  2.7300000000000000e+02  2.7300000000000000e+02  2.7300000000000000e+02  2.7300000000000000e+02  2.7300000000000000e+02  2.7300000000000000e+02  2.7300000000000000e+02  2.7300000000000000e+02  2.7300000000000000e+02  2.7300000000000000e+02  2.7300000000000000e+02  2.7300000000000000e+02  2.7300000000000000e+02  2.7300000000000000e+02  2.7300000000000000e+02  2.7300000000000000e+02  2.7300000000000000e+02  2.7300000000000000e+02  2.7300000000000000e+02  2.7300000000000000e+02  2.7300000000000000e+02  2.7300000000000000e+02  2.7300000000000000e+02  2.7300000000000000e+02  2.7300000000000000e+02  2.7300000000000000e+02  2.7300000000000000e+02  2.7300000000000000e+02  2.7300000000000000e+02  2.7300000000000000e+02  2.7300000000000000e+02  2.7300000000000000e+02  2.7300000000000000e+02  2.7300000000000000e+02  2.7300000000000000e+02  2.7300000000000000e+02  2.7300000000000000e+02  2.7300000000000000e+02  2.7300000000000000e+02  2.7300000000000000e+02  2.7300000000000000e+02  2.7300000000000000e+02  2.7300000000000000e+02  2.7300000000000000e+02  2.7300000000000000e+02  2.7300000000000000e+02  2.7300000000000000e+02  2.7300000000000000e+02  2.7300000000000000e+02  2.7300000000000000e+02  2.7300000000000000e+02  2.7300000000000000e+02  2.7300000000000000e+02  2.7300000000000000e+02  2.7300000000000000e+02  2.7300000000000000e+02  2.7300000000000000e+02  2.7300000000000000e+02  2.7300000000000000e+02  2.7300000000000000e+02  2.7300000000000000e+02  2.7300000000000000e+02  2.7300000000000000e+02  2.7300000000000000e+02  2.7300000000000000e+02  2.7300000000000000e+02  2.7300000000000000e+02  2.7300000000000000e+02  2.7300000000000000e+02  2.7300000000000000e+02  2.7300000000000000e+02  2.7300000000000000e+02  2.7300000000000000e+02  2.7300000000000000e+02  2.7300000000000000e+02  2.7300000000000000e+02  2.7300000000000000e+02  2.7300000000000000e+02  2.7300000000000000e+02  2.7300000000000000e+02  2.7300000000000000e+02  2.7300000000000000e+02  2.7300000000000000e+02  2.7300000000000000e+02  2.7300000000000000e+02  2.7300000000000000e+02  2.7300000000000000e+02  2.7300000000000000e+02  2.7300000000000000e+02  2.7300000000000000e+02  2.7300000000000000e+02  2.7300000000000000e+02  2.7300000000000000e+02  2.7300000000000000e+02  2.7300000000000000e+02  2.7300000000000000e+02  2.7300000000000000e+02  2.7300000000000000e+02  2.7300000000000000e+02  2.7300000000000000e+02  2.7300000000000000e+02  2.7300000000000000e+02  2.7300000000000000e+02  2.7300000000000000e+02  2.7300000000000000e+02  2.7300000000000000e+02  2.7300000000000000e+02  2.7300000000000000e+02  2.7300000000000000e+02  2.7300000000000000e+02  2.7300000000000000e+02  2.7300000000000000e+02  2.7300000000000000e+02  2.7300000000000000e+02  2.7300000000000000e+02  2.7300000000000000e+02  2.7300000000000000e+02  2.7300000000000000e+02  2.7300000000000000e+02  2.7300000000000000e+02  2.7300000000000000e+02  2.7300000000000000e+02  2.7300000000000000e+02  2.7300000000000000e+02  2.7300000000000000e+02  2.7300000000000000e+02  2.7300000000000000e+02  2.7300000000000000e+02  2.7300000000000000e+02  2.7300000000000000e+02  2.7300000000000000e+02  2.7300000000000000e+02  2.7300000000000000e+02  2.7300000000000000e+02  2.7300000000000000e+02  2.7300000000000000e+02  2.7300000000000000e+02  2.7300000000000000e+02  2.7300000000000000e+02  2.7300000000000000e+02  2.7300000000000000e+02  2.7300000000000000e+02  2.7300000000000000e+02  2.7300000000000000e+02  2.7300000000000000e+02  2.7300000000000000e+02  2.7300000000000000e+02  2.7300000000000000e+02  2.7300000000000000e+02  2.7300000000000000e+02  2.7300000000000000e+02  2.7300000000000000e+02  2.7300000000000000e+02  2.7300000000000000e+02  2.7300000000000000e+02  2.7300000000000000e+02  2.7300000000000000e+02  2.7300000000000000e+02  2.7300000000000000e+02  2.7300000000000000e+02  2.7300000000000000e+02  2.7300000000000000e+02  2.7300000000000000e+02  2.7300000000000000e+02  2.7300000000000000e+02  2.7300000000000000e+02  2.7300000000000000e+02  2.7300000000000000e+02  2.7300000000000000e+02  2.7300000000000000e+02  2.7300000000000000e+02  2.7300000000000000e+02  2.7300000000000000e+02  2.7300000000000000e+02  2.7300000000000000e+02  2.7300000000000000e+02  2.7300000000000000e+02  2.7300000000000000e+02  2.7300000000000000e+02  2.7300000000000000e+02  2.7300000000000000e+02  2.7300000000000000e+02  2.7300000000000000e+02  2.7300000000000000e+02  2.7300000000000000e+02  2.7300000000000000e+02  2.7300000000000000e+02  2.7300000000000000e+02  2.7300000000000000e+02  2.7300000000000000e+02  2.7300000000000000e+02  2.7300000000000000e+02  2.7300000000000000e+02  2.7300000000000000e+02  2.7300000000000000e+02  2.7300000000000000e+02  2.7300000000000000e+02  2.7300000000000000e+02  2.7300000000000000e+02  2.7300000000000000e+02  2.7300000000000000e+02  2.7300000000000000e+02  2.7300000000000000e+02  2.7300000000000000e+02  2.7300000000000000e+02  2.7300000000000000e+02  2.7300000000000000e+02  2.7300000000000000e+02  2.7300000000000000e+02  2.7300000000000000e+02  2.7300000000000000e+02  2.7300000000000000e+02  2.7300000000000000e+02  2.7300000000000000e+02  2.7300000000000000e+02  2.7300000000000000e+02  2.7300000000000000e+02  2.7300000000000000e+02  2.7300000000000000e+02  2.7300000000000000e+02  2.7300000000000000e+02  2.7300000000000000e+02  2.7300000000000000e+02  2.7300000000000000e+02  2.7300000000000000e+02  2.7300000000000000e+02  2.7300000000000000e+02  2.7300000000000000e+02  2.7300000000000000e+02  2.7300000000000000e+02  2.7300000000000000e+02  2.7300000000000000e+02  2.7300000000000000e+02  2.7300000000000000e+02  2.7300000000000000e+02  2.7300000000000000e+02  2.7300000000000000e+02  2.7300000000000000e+02  2.7300000000000000e+02  2.7300000000000000e+02  2.7300000000000000e+02  2.7300000000000000e+02  2.7300000000000000e+02  2.7300000000000000e+02  2.7300000000000000e+02  2.7300000000000000e+02  2.7300000000000000e+02  2.7300000000000000e+02  2.7300000000000000e+02  2.7300000000000000e+02  2.7300000000000000e+02  2.7300000000000000e+02  2.7300000000000000e+02  2.7300000000000000e+02  2.7300000000000000e+02  2.7300000000000000e+02  2.7300000000000000e+02  2.7300000000000000e+02  2.7300000000000000e+02  2.7300000000000000e+02  2.7300000000000000e+02  2.7300000000000000e+02  2.7300000000000000e+02  2.7300000000000000e+02  2.7300000000000000e+02  2.7300000000000000e+02  2.7300000000000000e+02  2.7300000000000000e+02  2.7300000000000000e+02  2.7300000000000000e+02  2.7300000000000000e+02  2.7300000000000000e+02  2.7300000000000000e+02  2.7300000000000000e+02  2.7300000000000000e+02  2.7300000000000000e+02  2.7300000000000000e+02  2.7300000000000000e+02  2.7300000000000000e+02  2.7300000000000000e+02  2.7300000000000000e+02  2.7300000000000000e+02  2.7300000000000000e+02  2.7300000000000000e+02  2.7300000000000000e+02  2.7300000000000000e+02  2.7300000000000000e+02  2.7300000000000000e+02  2.7300000000000000e+02  2.7300000000000000e+02  2.7300000000000000e+02  2.7300000000000000e+02  2.7300000000000000e+02  2.7300000000000000e+02  2.7300000000000000e+02  2.7300000000000000e+02  2.7300000000000000e+02  2.7300000000000000e+02  2.7300000000000000e+02  2.7300000000000000e+02  3.4000000000000000e+02  3.4000000000000000e+02  3.4000000000000000e+02  3.4000000000000000e+02  3.4000000000000000e+02  3.4000000000000000e+02  3.4000000000000000e+02  3.4000000000000000e+02  3.4000000000000000e+02  3.4000000000000000e+02  3.4000000000000000e+02  3.4000000000000000e+02  3.4000000000000000e+02  3.4000000000000000e+02  3.4000000000000000e+02  3.4000000000000000e+02  3.4000000000000000e+02  3.4000000000000000e+02  3.4000000000000000e+02  3.4000000000000000e+02  3.4000000000000000e+02  3.4000000000000000e+02  3.4000000000000000e+02  3.4000000000000000e+02  3.4000000000000000e+02  3.4000000000000000e+02  3.4000000000000000e+02  3.4000000000000000e+02  3.4000000000000000e+02  3.4000000000000000e+02  3.4000000000000000e+02  3.4000000000000000e+02  3.4000000000000000e+02  3.4000000000000000e+02  3.4000000000000000e+02  3.4000000000000000e+02  3.4000000000000000e+02  3.4000000000000000e+02  3.4000000000000000e+02  3.4000000000000000e+02  3.4000000000000000e+02  3.4000000000000000e+02  3.4000000000000000e+02  3.4000000000000000e+02  3.4000000000000000e+02  3.4000000000000000e+02  3.4000000000000000e+02  3.4000000000000000e+02  3.4000000000000000e+02  3.4000000000000000e+02  3.4000000000000000e+02  3.4000000000000000e+02  3.4000000000000000e+02  3.4000000000000000e+02  3.4000000000000000e+02  3.4000000000000000e+02  3.4000000000000000e+02  3.4000000000000000e+02  3.4000000000000000e+02  3.4000000000000000e+02  3.4000000000000000e+02  3.4000000000000000e+02  3.4000000000000000e+02  3.4000000000000000e+02  3.4000000000000000e+02  3.4000000000000000e+02  3.4000000000000000e+02  3.4000000000000000e+02  3.4000000000000000e+02  3.4000000000000000e+02  3.4000000000000000e+02  3.4000000000000000e+02  3.4000000000000000e+02  3.4000000000000000e+02  3.4000000000000000e+02  3.4000000000000000e+02  3.4000000000000000e+02  3.4000000000000000e+02  3.4000000000000000e+02  3.4000000000000000e+02  3.4000000000000000e+02  3.4000000000000000e+02  3.4000000000000000e+02  3.4000000000000000e+02  3.4000000000000000e+02  3.4000000000000000e+02  3.4000000000000000e+02  3.4000000000000000e+02  3.4000000000000000e+02  3.4000000000000000e+02  3.4000000000000000e+02  3.4000000000000000e+02  3.4000000000000000e+02  3.4000000000000000e+02  3.4000000000000000e+02  3.4000000000000000e+02  3.4000000000000000e+02  3.4000000000000000e+02  3.4000000000000000e+02  3.4000000000000000e+02  3.4000000000000000e+02  3.4000000000000000e+02  3.4000000000000000e+02  3.4000000000000000e+02  3.4000000000000000e+02  3.4000000000000000e+02  3.4000000000000000e+02  3.4000000000000000e+02  3.4000000000000000e+02  3.4000000000000000e+02  3.4000000000000000e+02  3.4000000000000000e+02  3.4000000000000000e+02  3.4000000000000000e+02  3.4000000000000000e+02  3.4000000000000000e+02  3.4000000000000000e+02  3.4000000000000000e+02  3.4000000000000000e+02  3.4000000000000000e+02  3.4000000000000000e+02  3.4000000000000000e+02  3.4000000000000000e+02  3.4000000000000000e+02  3.4000000000000000e+02  3.4000000000000000e+02  3.4000000000000000e+02  3.4000000000000000e+02  3.4000000000000000e+02  3.4000000000000000e+02  3.4000000000000000e+02  3.4000000000000000e+02  3.4000000000000000e+02  3.4000000000000000e+02  3.4000000000000000e+02  3.4000000000000000e+02  3.4000000000000000e+02  3.4000000000000000e+02  3.4000000000000000e+02  3.4000000000000000e+02  3.4000000000000000e+02  3.4000000000000000e+02  3.4000000000000000e+02  3.4000000000000000e+02  3.4000000000000000e+02  3.4000000000000000e+02  3.4000000000000000e+02  3.4000000000000000e+02  3.4000000000000000e+02  3.4000000000000000e+02  3.2714735530113296e+02  3.2848431285485702e+02  3.3055218768942558e+02  3.2639482135405444e+02  2.7299973376888869e+02  2.7299976957342659e+02  3.3266137158659546e+02  3.3454584535564163e+02  2.9109396528798987e+02  3.3182267679253846e+02  3.3484687254228697e+02  2.7300149351264622e+02  2.7300768270755378e+02  2.7299997947851659e+02  2.7300174903558059e+02  2.7299992027667616e+02  2.7300006892294169e+02  2.7300901886206094e+02  2.7299945527941543e+02  3.2607334342038121e+02  3.2448358787033720e+02  3.1839890919031319e+02  3.2581081168339955e+02  3.2341966385066479e+02  2.8510418154976264e+02  2.7300433280384090e+02  2.7300028009141653e+02  2.7299994887091111e+02  2.7300358812513741e+02  2.7305085664388315e+02  2.7307403577385429e+02  2.8497274746179960e+02  2.7299965615574672e+02  3.2485251317974956e+02  3.2134842774065737e+02  3.1407878598198397e+02  3.3545245760375343e+02  3.3519212041511014e+02  3.3468799024822960e+02  2.7904230198466297e+02  2.7301363218398762e+02  2.7300634771183917e+02  2.7304173269919181e+02  2.7300624413414732e+02  2.7307108115496374e+02  2.7302247863523803e+02  2.7308033058067559e+02  2.7305112269853635e+02  2.7306606237345710e+02  2.7299944919091638e+02  3.1585010609295489e+02  3.1804597718318303e+02  3.1529178306855255e+02  3.3618737747561670e+02  2.7299945365290023e+02  2.7693327934321098e+02  2.7299995145703991e+02  2.7308455803113196e+02  2.7304708415573259e+02  2.7299918587514503e+02  3.1593200756410022e+02  2.7300833768089439e+02  2.7299986184147059e+02  2.7307766348022426e+02  2.7307040018105914e+02  2.7303347890616453e+02  2.7303592114586093e+02  2.7300239254415209e+02  2.7300573982732925e+02  2.7301366022382399e+02  3.2376750342812051e+02  2.7426131359235779e+02  2.7558088022955758e+02  2.7299995811508063e+02  3.3624266617087511e+02  3.1857584367502761e+02  2.7299989895260472e+02  2.7299991479733768e+02  2.7299935469827966e+02  3.3492056461018728e+02  3.1766141292966000e+02  3.3275157860990237e+02  3.2762610599931872e+02  3.2712121717727530e+02  3.2450661396244288e+02  3.2185119577786975e+02  3.1936650639971742e+02  2.7299986997359917e+02  2.7299942729888750e+02  2.7299982229957550e+02  2.7299926807982030e+02  2.7299981319306511e+02  2.7299965746244300e+02  2.7307773554334824e+02  2.7306152307394370e+02  2.7300040818050644e+02  2.7299990985296233e+02  2.7300863932310443e+02  2.7308649511145467e+02  2.7305677476381447e+02  2.7299948476720613e+02  3.2759138744814391e+02  3.2928495682286837e+02  3.3160049242645903e+02  3.2554609717328657e+02  3.3366800502697384e+02  3.2516629846833138e+02  3.2757638534547812e+02  2.7352037884448396e+02  2.9002689453793460e+02  2.7431502310326772e+02  2.8871143383795544e+02  2.7299995307473381e+02  2.7299923679719330e+02  2.7299946243010436e+02  2.7299993727880798e+02  2.7299953818365731e+02  2.7299909051958559e+02  2.7299999918440938e+02  2.7299930738191705e+02  2.7357551788282541e+02  2.7299995026058144e+02  2.7299990180207510e+02  3.3450902664998324e+02  3.3674323377339817e+02  3.3584198504043610e+02  3.2963632228329953e+02  3.1709314332851039e+02  3.1731867788032724e+02  3.1797012750556740e+02  3.1593876182802779e+02  3.1755386638555075e+02  2.7299995800907800e+02  2.7305454150719089e+02  2.7300221827695009e+02  2.7300937340781331e+02  2.7299993185410455e+02  2.7299953378641777e+02  2.7299945106519010e+02  2.7300503925197160e+02  2.7300019949806756e+02  2.7300299157618241e+02  2.7299973171241106e+02  2.7300088023864322e+02  2.7299984065232275e+02  2.7300003616278491e+02  2.7299995803185072e+02  2.7299944541191707e+02  2.7299921532108044e+02  2.7299993576245936e+02  2.7299989172776532e+02  2.7299954209584610e+02  2.7299898227919635e+02  2.7299936917227529e+02  2.7299950808611061e+02  2.7308351181356318e+02  2.7302017138782657e+02  2.7305688510484310e+02  2.7305052479035459e+02  2.7307532095712617e+02  2.7304821214031494e+02  2.7308179169818322e+02  2.7300612411787961e+02  2.7304078204918346e+02  2.7309568393399104e+02  2.7306007690630980e+02  2.7300504736542894e+02  2.7300457924006321e+02  2.7307114862529613e+02  2.7304360228609107e+02  2.7301101850362818e+02  2.7300414573900804e+02  2.7300653227520394e+02  2.7306605044697977e+02  2.7305963737254382e+02  2.7302600498638651e+02  2.7301970309497239e+02  2.7299994868736894e+02  2.7299999990358822e+02  3.2802428047223663e+02  3.2989384191816265e+02  3.2461621935701891e+02  3.2408231484317434e+02  3.2160313864743620e+02  3.2481784084656977e+02  3.3463446907783958e+02  3.2360831555455104e+02  3.2167739784805656e+02  3.3499732652489234e+02  3.2125536687505593e+02  3.2612941642516114e+02  3.0749620456787130e+02  3.1519217690782466e+02  2.9494586147872218e+02  2.8712346977236552e+02  2.8027820712961795e+02  2.7710567256891949e+02  2.7459884478967274e+02  2.7375626956473860e+02  2.7327219402232640e+02  2.7501703575197098e+02  2.7311654438097122e+02  2.7301974119364121e+02  2.7306283202116509e+02  2.7300849865625264e+02  2.7301654255783359e+02  2.7299966708674481e+02  2.7300163622833327e+02  2.7299968210485724e+02  2.7300002476419155e+02  2.7299959014200192e+02  2.7299952430223942e+02  2.7299954537480579e+02  2.7299964509996101e+02  2.7299963224536731e+02  2.7299962942820548e+02  2.7299962274878868e+02  2.7299968433693283e+02  2.7299969135117118e+02  2.7299969398201472e+02  2.7299969831860602e+02  2.7299973244665136e+02  2.7299973200385773e+02  2.7299975099214060e+02  2.7299976015046366e+02  2.7299977652229654e+02  2.7299977702487837e+02  2.7299979710192156e+02  2.7299980474612511e+02  2.7299981662501426e+02  2.7299981217518501e+02  2.7299984082400073e+02  2.7299985494598741e+02  2.7299985212756462e+02  2.7299985098548700e+02  2.7299987048004584e+02  2.7299987867501193e+02  2.7299988367490897e+02  2.7299988673310179e+02  2.7299990197995214e+02  2.7299990940699428e+02  2.7299991384208596e+02  2.7299990871707092e+02  2.7299992292625910e+02  2.7299992921200493e+02  2.7299993481584829e+02  2.7299994074362303e+02  2.7299994705246911e+02  2.7299995328126943e+02  2.7299995790765814e+02  2.7299996409991826e+02  2.7299996842094669e+02  2.7299997463497795e+02  2.7299997810824021e+02  2.7299998431125488e+02  2.7299998723974426e+02  2.7299999340223411e+02  2.7299999564367425e+02  2.7299998971010262e+02  2.7300000184334112e+02  2.7300000355565072e+02  2.7300000971617897e+02  2.7300001106460832e+02  2.7300001706901003e+02  2.7300001798206478e+02  2.7300002387700130e+02  2.7300002448109575e+02  2.7300003019060489e+02  2.7300003015867077e+02  2.7299995186340090e+02  2.7300001859542596e+02  2.7300002974166472e+02  2.7300003592653849e+02  2.7299999960305047e+02  2.7300003553459624e+02  2.7300004159152411e+02  2.7299995961311538e+02  2.7300004258260037e+02  2.7300004784076970e+02  2.7300007635837136e+02  2.7300007043418731e+02  2.7300005293638901e+02  2.7300006792672133e+02  2.7300005775101630e+02  2.7300006790211194e+02  2.7300006223235818e+02  2.7300006954394775e+02  2.7300006645402709e+02  2.7300007220291883e+02  2.7300007004683033e+02  2.7300011493824871e+02  2.7300009731598936e+02  2.7299979501311674e+02  2.7299988945887816e+02  2.7299986473620470e+02  2.7299991701937131e+02  2.7300027040711166e+02  2.7300050356744799e+02  2.7300032214564357e+02  2.7299980341327012e+02  2.7300302953460744e+02  2.7300190078941154e+02  2.7300020988656922e+02  2.7300113928971490e+02  2.7300014620681247e+02  2.7300065538894830e+02  2.7300011359760009e+02  2.7300036864813467e+02  2.7300009902220421e+02  2.7300187922191714e+02  2.7300028198263925e+02  2.7299958398029412e+02  2.7299963338648735e+02  2.7300006172777358e+02  2.7300008630832315e+02  2.7300385224715313e+02  2.7300214990321996e+02  2.7301565682749725e+02  2.7302276864856219e+02  2.7301941107721814e+02  2.7301157425966460e+02  2.7309219107891073e+02  2.7312395058613129e+02  2.7299960941058532e+02  2.7299964485710359e+02  2.7300530941465865e+02  2.7308074897255068e+02  2.7305143699861031e+02  2.7300643445187228e+02  2.7303075987094451e+02  2.7300328912544245e+02  2.7301703213909275e+02  2.7300150198247565e+02  2.7299961057800488e+02  2.7299965414012559e+02  2.7340509898775440e+02  2.7351175248062822e+02  2.7299963965947808e+02  2.7299959034378656e+02  2.7299966347250364e+02  2.7299967908818536e+02  2.7299968868034881e+02  2.7299970493795632e+02  2.7299970788746765e+02  2.7299972823726267e+02  2.7299973516568059e+02  2.729