<?xml version="1.0"?>
<VTKFile type="UnstructuredGrid"  version="0.1"  >
<UnstructuredGrid>
<Piece  NumberOfPoints="22947" NumberOfCells="45411">
<Points>
<DataArray  type="Float64"  NumberOfComponents="3"  format="ascii">0 0 0  5 0 0  5 1 0  0 1 0  1.5 0.2 0  1.3 0.6 0  1.7 0.6 0  0.09988181715350253 0 0  0.1997636343069831 0 0  0.2996454514604577 0 0  0.3995272686139624 0 0  0.4994090857674671 0 0  0.5992909029209642 0 0  0.6991727200743116 0 0  0.7977480796387948 0 0  0.8833077882008854 0 0  0.9552465290058831 0 0  1.015928428880551 0 0  1.06737033859586 0 0  1.111317272793253 0 0  1.14931422653285 0 0  1.182777857033489 0 0  1.213067364367625 0 0  1.241543873852857 0 0  1.269517245850398 0 0  1.297484154653317 0 0  1.325451063456236 0 0  1.353417972259155 0 0  1.381384881062075 0 0  1.409351789864994 0 0  1.437318698667913 0 0  1.465285607470832 0 0  1.493252516273751 0 0  1.521219425076671 0 0  1.54918633387959 0 0  1.577153242682509 0 0  1.605120151485428 0 0  1.633087060288348 0 0  1.661053969091267 0 0  1.689020877894186 0 0  1.716987786697105 0 0  1.744954695500025 0 0  1.772921604302944 0 0  1.800888513105863 0 0  1.828855421908782 0 0  1.856822330711702 0 0  1.884789239514621 0 0  1.91275614831754 0 0  1.940723057120459 0 0  1.968689965923379 0 0  1.996656874726308 0 0  2.02462378352929 0 0  2.052590692332318 0 0  2.080557601135361 0 0  2.108524509938404 0 0  2.136491418741448 0 0  2.164458327544491 0 0  2.192425236347535 0 0  2.220392145150578 0 0  2.248359053953621 0 0  2.276325962756665 0 0  2.304292871559708 0 0  2.332259780362751 0 0  2.360226689165795 0 0  2.388193597968838 0 0  2.416160506771881 0 0  2.444127415574925 0 0  2.472094324377968 0 0  2.500061233181011 0 0  2.528028141984055 0 0  2.555995050787098 0 0  2.583961959590142 0 0  2.611928868393185 0 0  2.639895777196228 0 0  2.667862685999272 0 0  2.695829594802315 0 0  2.723796503605358 0 0  2.751763412408402 0 0  2.779730321211445 0 0  2.807697230014488 0 0  2.835664138817531 0 0  2.863631047620574 0 0  2.891597956423618 0 0  2.919564865226662 0 0  2.947531774029705 0 0  2.975498682832749 0 0  3.003466037710658 0 0  3.031764566682743 0 0  3.061630572857904 0 0  3.094429607623581 0 0  3.13021238288224 0 0  3.166169837057582 0 0  3.202127291232924 0 0  3.238084745408265 0 0  3.274042199583607 0 0  3.309999653758949 0 0  3.34595710793429 0 0  3.381914562109632 0 0  3.417872016284973 0 0  3.453829470460315 0 0  3.489786924635657 0 0  3.525744378810998 0 0  3.56170183298634 0 0  3.597659287161681 0 0  3.633616741337023 0 0  3.669574195512365 0 0  3.705531649687707 0 0  3.741489103863048 0 0  3.77744655803839 0 0  3.813404012213732 0 0  3.849361466389073 0 0  3.885318920564415 0 0  3.921276374739756 0 0  3.957233828915097 0 0  3.993191283090439 0 0  4.02914873726578 0 0  4.065106191441122 0 0  4.101063645616464 0 0  4.137021099791806 0 0  4.172978553967147 0 0  4.208936008142489 0 0  4.24489346231783 0 0  4.280850916493172 0 0  4.316808370668514 0 0  4.352765824843855 0 0  4.388723279019197 0 0  4.424680733194538 0 0  4.46063818736988 0 0  4.496595641545222 0 0  4.532553095720563 0 0  4.568510549895905 0 0  4.604468004071246 0 0  4.640425458246588 0 0  4.676382912421929 0 0  4.712340366597271 0 0  4.748297820772613 0 0  4.784255274947953 0 0  4.820212729123295 0 0  4.856170183298635 0 0  4.892127637473977 0 0  4.928085091649318 0 0  4.964042545824659 0 0  5 0.0328500670419322 0  5 0.06090401573905966 0  5 0.08486207734983149 0  5 0.1054388876402908 0  5 0.1251669432582367 0  5 0.1448949988761606 0  5 0.1646230544940819 0  5 0.1843511101120033 0  5 0.2040791657299246 0  5 0.2238072213478459 0  5 0.2435352769657672 0  5 0.2632633325836884 0  5 0.2829913882016097 0  5 0.3027194438195311 0  5 0.3224474994374524 0  5 0.3421755550553737 0  5 0.3619036106732951 0  5 0.3816316662912164 0  5 0.4013597219091377 0  5 0.421087777527059 0  5 0.4408158331449803 0  5 0.4605438887629016 0  5 0.4802719443808229 0  5 0.4999999999987551 0  5 0.519728055616775 0  5 0.5394561112348057 0  5 0.5591841668528366 0  5 0.5789122224708674 0  5 0.5986402780888981 0  5 0.6183683337069288 0  5 0.6380963893249596 0  5 0.6578244449429903 0  5 0.6775525005610212 0  5 0.6972805561790519 0  5 0.7170086117970828 0  5 0.7367366674151135 0  5 0.7564647230331443 0  5 0.776192778651175 0  5 0.7959208342692058 0  5 0.8156488898872365 0  5 0.8353769455052672 0  5 0.855105001123298 0  5 0.8748330567413287 0  5 0.8945611123593595 0  5 0.9151379226498687 0  5 0.9390959842606995 0  5 0.9671499329579316 0  4.964042545824707 1 0  4.928085091649415 1 0  4.892127637474122 1 0  4.856170183298829 1 0  4.820212729123536 1 0  4.784255274948244 1 0  4.748297820772951 1 0  4.712340366597658 1 0  4.676382912422365 1 0  4.640425458247072 1 0  4.604468004071779 1 0  4.568510549896486 1 0  4.532553095721194 1 0  4.496595641545901 1 0  4.460638187370608 1 0  4.424680733195316 1 0  4.388723279020023 1 0  4.35276582484473 1 0  4.316808370669437 1 0  4.280850916494145 1 0  4.244893462318852 1 0  4.208936008143559 1 0  4.172978553968266 1 0  4.137021099792974 1 0  4.101063645617681 1 0  4.065106191442388 1 0  4.029148737267096 1 0  3.993191283091803 1 0  3.95723382891651 1 0  3.921276374741217 1 0  3.885318920565925 1 0  3.849361466390632 1 0  3.813404012215339 1 0  3.777446558040046 1 0  3.741489103864753 1 0  3.705531649689461 1 0  3.669574195514167 1 0  3.633616741338875 1 0  3.597659287163582 1 0  3.561701832988289 1 0  3.525744378812996 1 0  3.489786924637703 1 0  3.45382947046241 1 0  3.417872016287117 1 0  3.381914562111825 1 0  3.345957107936532 1 0  3.309999653761239 1 0  3.274042199585946 1 0  3.238084745410653 1 0  3.20212729123536 1 0  3.166169837060067 1 0  3.130212382884775 1 0  3.094429607626076 1 0  3.061630572860181 1 0  3.031764566684895 1 0  3.00346603771278 1 0  2.97549868283491 1 0  2.947531774031904 1 0  2.919564865228899 1 0  2.891597956425894 1 0  2.863631047622888 1 0  2.835664138819883 1 0  2.807697230016877 1 0  2.779730321213872 1 0  2.751763412410866 1 0  2.723796503607861 1 0  2.695829594804855 1 0  2.66786268600185 1 0  2.639895777198844 1 0  2.611928868395839 1 0  2.583961959592834 1 0  2.555995050789828 1 0  2.528028141986823 1 0  2.500061233183817 1 0  2.472094324380812 1 0  2.444127415577806 1 0  2.416160506774801 1 0  2.388193597971795 1 0  2.36022668916879 1 0  2.332259780365785 1 0  2.304292871562779 1 0  2.276325962759774 1 0  2.248359053956768 1 0  2.220392145153763 1 0  2.192425236350757 1 0  2.164458327547752 1 0  2.136491418744747 1 0  2.108524509941741 1 0  2.080557601138736 1 0  2.05259069233573 1 0  2.024623783532725 1 0  1.99665687472972 1 0  1.968689965926714 1 0  1.940723057123709 1 0  1.912756148320703 1 0  1.884789239517698 1 0  1.856822330714692 1 0  1.828855421911687 1 0  1.800888513108681 1 0  1.772921604305676 1 0  1.74495469550267 1 0  1.716987786699665 1 0  1.68902087789666 1 0  1.661053969093654 1 0  1.633087060290649 1 0  1.605120151487644 1 0  1.577153242684639 1 0  1.549186333881632 1 0  1.521219425078627 1 0  1.493252516275621 1 0  1.465285607472617 1 0  1.437318698669611 1 0  1.409351789866606 1 0  1.3813848810636 1 0  1.353417972260594 1 0  1.32545106345759 1 0  1.297484154654584 1 0  1.269517245851579 1 0  1.241543873853952 1 0  1.213067364368676 1 0  1.182777857034534 1 0  1.149314226533915 1 0  1.111317272794346 1 0  1.067370338596986 1 0  1.015928428881706 1 0  0.9552465290070451 1 0  0.8833077882020213 1 0  0.7977480796398604 1 0  0.6991727200751363 1 0  0.5992909029215436 1 0  0.4994090857679536 1 0  0.3995272686143618 1 0  0.2996454514607718 1 0  0.1997636343071827 1 0  0.09988181715359001 1 0  0 0.8999999999995836 0  0 0.7999999999999998 0  0 0.7000000000006934 0  0 0.6000000000013869 0  0 0.5000000000020587 0  0 0.4000000000016644 0  0 0.3000000000012483 0  0 0.2000000000008322 0  0 0.100000000000416 0  1.699751384242739 0.6099691771530924 0  1.699006155066563 0.6199135693842884 0  1.697766165232479 0.6298084533184788 0  1.696034497548046 0.6396292287470388 0  1.693815457209259 0.649351479681627 0  1.691114561101324 0.6589510350634165 0  1.687938524092297 0.6684040288434037 0  1.684295242284711 0.6776869594669508 0  1.680193773487681 0.6867767480162182 0  1.67564431456081 0.6956507959321996 0  1.670658176173392 0.7042870409263378 0  1.665247754668492 0.7126640118983073 0  1.659426501197733 0.720760882390984 0  1.653208888346202 0.7285575222681306 0  1.646610374031267 0.7360345479149025 0  1.639647363235856 0.7431733702239103 0  1.632337167092531 0.7499562409702357 0  1.62469795989353 0.756366296874971 0  1.616748733919558 0.7623876015223461 0  1.608509252208739 0.7680051849946904 0  1.599999999406289 0.7732050810996667 0  1.591242130860608 0.7779743620750351 0  1.582257419988525 0.7823011707500295 0  1.573068204170437 0.7861747500046861 0  1.563697329302744 0.7895854694846042 0  1.554168092871136 0.7925248496031199 0  1.544504185999879 0.7949855826169927 0  1.534729634727922 0.7969615507444667 0  1.524868740094186 0.7984478414247124 0  1.514946017836289 0.7994407595022575 0  1.504986137413824 0.7999378364234504 0  1.495013860716175 0.7999378363768156 0  1.485053980351481 0.7994407593664496 0  1.475131258156531 0.7984478412054987 0  1.465270363613604 0.7969615504520329 0  1.4554958123743 0.7949855822459098 0  1.445831905597438 0.7925248491722436 0  1.436302669250897 0.7895854689986533 0  1.426931794485273 0.786174749477091 0  1.417742578777908 0.7823011701934227 0  1.408757867959409 0.7779743614700931 0  1.399999999478033 0.7732050804555297 0  1.391490746737941 0.7680051843143844 0  1.383251265066765 0.7623876007935619 0  1.375302039213222 0.7563662961626294 0  1.367662832117841 0.7499562402733849 0  1.360352636037667 0.7431733695153243 0  1.353389625336735 0.736034547233771 0  1.346791111115898 0.7285575216270866 0  1.340573498342716 0.7207608817842938 0  1.33475224496031 0.7126640113538593 0  1.329341823531611 0.7042870404435957 0  1.324355685207748 0.6956507955072012 0  1.319806226317615 0.6867767476119111 0  1.315704757542792 0.6
[...]
<PointData  Scalars="Temperature"> 
<DataArray  type="Float64"  Name="Temperature"  format="ascii">2.7300000000000000e+02  2.7300000000000000e+02  2.7300000000000000e+02  2.7300000000000000e+02  3.4000000000000000e+02  3.4000000000000000e+02  3.4000000000000000e+02  2.7300000000000000e+02  2.7300000000000000e+02  2.7300000000000000e+02  2.7300000000000000e+02  2.7300000000000000e+02  2.7300000000000000e+02  2.7300000000000000e+02  2.7300000000000000e+02  2.7300000000000000e+02  2.7300000000000000e+02  2.7300000000000000e+02  2.7300000000000000e+02  2.7300000000000000e+02  2.7300000000000000e+02  2.7300000000000000e+02  2.7300000000000000e+02  2.7300000000000000e+02  2.7300000000000000e+02  2.7300000000000000e+02  2.7300000000000000e+02  2.7300000000000000e+02  2.7300000000000000e+02  2.7300000000000000e+02  2.7300000000000000e+02  2.7300000000000000e+02  2.7300000000000000e+02  2.7300000000000000e+02  2.7300000000000000e+02  2.7300000000000000e+02  2.7300000000000000e+02  2.7300000000000000e+02  2.7300000000000000e+02  2.7300000000000000e+02  2.7300000000000000e+02  2.7300000000000000e+02  2.7300000000000000e+02  2.7300000000000000e+02  2.7300000000000000e+02  2.7300000000000000e+02  2.7300000000000000e+02  2.7300000000000000e+02  2.7300000000000000e+02  2.7300000000000000e+02  2.7300000000000000e+02  2.7300000000000000e+02  2.7300000000000000e+02  2.7300000000000000e+02  2.7300000000000000e+02  2.7300000000000000e+02  2.7300000000000000e+02  2.7300000000000000e+02  2.7300000000000000e+02  2.7300000000000000e+02  2.7300000000000000e+02  2.7300000000000000e+02  2.7300000000000000e+02  2.7300000000000000e+02  2.7300000000000000e+02  2.7300000000000000e+02  2.7300000000000000e+02  2.7300000000000000e+02  2.7300000000000000e+02  2.7300000000000000e+02  2.7300000000000000e+02  2.7300000000000000e+02  2.7300000000000000e+02  2.7300000000000000e+02  2.7300000000000000e+02  2.7300000000000000e+02  2.7300000000000000e+02  2.7300000000000000e+02  2.7300000000000000e+02  2.7300000000000000e+02  2.7300000000000000e+02  2.7300000000000000e+02  2.7300000000000000e+02  2.7300000000000000e+02  2.7300000000000000e+02  2.7300000000000000e+02  2.7300000000000000e+02  2.7300000000000000e+02  2.7300000000000000e+02  2.7300000000000000e+02  2.7300000000000000e+02  2.7300000000000000e+02  2.7300000000000000e+02  2.7300000000000000e+02  2.7300000000000000e+02  2.7300000000000000e+02  2.7300000000000000e+02  2.7300000000000000e+02  2.7300000000000000e+02  2.7300000000000000e+02  2.7300000000000000e+02  2.7300000000000000e+02  2.7300000000000000e+02  2.7300000000000000e+02  2.7300000000000000e+02  2.7300000000000000e+02  2.7300000000000000e+02  2.7300000000000000e+02  2.7300000000000000e+02  2.7300000000000000e+02  2.7300000000000000e+02  2.7300000000000000e+02  2.7300000000000000e+02  2.7300000000000000e+02  2.7300000000000000e+02  2.7300000000000000e+02  2.7300000000000000e+02  2.7300000000000000e+02  2.7300000000000000e+02  2.7300000000000000e+02  2.7300000000000000e+02  2.7300000000000000e+02  2.7300000000000000e+02  2.7300000000000000e+02  2.7300000000000000e+02  2.7300000000000000e+02  2.7300000000000000e+02  2.7300000000000000e+02  2.7300000000000000e+02  2.7300000000000000e+02  2.7300000000000000e+02  2.7300000000000000e+02  2.7300000000000000e+02  2.7300000000000000e+02  2.7300000000000000e+02  2.7300000000000000e+02  2.7300000000000000e+02  2.7300000000000000e+02  2.7300000000000000e+02  2.7300000000000000e+02  2.7300000000000000e+02  2.7300000000000000e+02  2.7300000000000000e+02  2.7300000000000000e+02  2.7300000000000000e+02  2.7300000000000000e+02  2.7300000000000000e+02  2.7300000000000000e+02  2.7300000000000000e+02  2.7300000000000000e+02  2.7300000000000000e+02  2.7300000000000000e+02  2.7300000000000000e+02  2.7300000000000000e+02  2.7300000000000000e+02  2.7300000000000000e+02  2.7300000000000000e+02  2.7300000000000000e+02  2.7300000000000000e+02  2.7300000000000000e+02  2.7300000000000000e+02  2.7300000000000000e+02  2.7300000000000000e+02  2.7300000000000000e+02  2.7300000000000000e+02  2.7300000000000000e+02  2.7300000000000000e+02  2.7300000000000000e+02  2.7300000000000000e+02  2.7300000000000000e+02  2.7300000000000000e+02  2.7300000000000000e+02  2.7300000000000000e+02  2.7300000000000000e+02  2.7300000000000000e+02  2.7300000000000000e+02  2.7300000000000000e+02  2.7300000000000000e+02  2.7300000000000000e+02  2.7300000000000000e+02  2.7300000000000000e+02  2.7300000000000000e+02  2.7300000000000000e+02  2.7300000000000000e+02  2.7300000000000000e+02  2.7300000000000000e+02  2.7300000000000000e+02  2.7300000000000000e+02  2.7300000000000000e+02  2.7300000000000000e+02  2.7300000000000000e+02  2.7300000000000000e+02  2.7300000000000000e+02  2.7300000000000000e+02  2.7300000000000000e+02  2.7300000000000000e+02  2.7300000000000000e+02  2.7300000000000000e+02  2.7300000000000000e+02  2.7300000000000000e+02  2.7300000000000000e+02  2.7300000000000000e+02  2.7300000000000000e+02  2.7300000000000000e+02  2.7300000000000000e+02  2.7300000000000000e+02  2.7300000000000000e+02  2.7300000000000000e+02  2.7300000000000000e+02  2.7300000000000000e+02  2.7300000000000000e+02  2.7300000000000000e+02  2.7300000000000000e+02  2.7300000000000000e+02  2.7300000000000000e+02  2.7300000000000000e+02  2.7300000000000000e+02  2.7300000000000000e+02  2.7300000000000000e+02  2.7300000000000000e+02  2.7300000000000000e+02  2.7300000000000000e+02  2.7300000000000000e+02  2.7300000000000000e+02  2.7300000000000000e+02  2.7300000000000000e+02  2.7300000000000000e+02  2.7300000000000000e+02  2.7300000000000000e+02  2.7300000000000000e+02  2.7300000000000000e+02  2.7300000000000000e+02  2.7300000000000000e+02  2.7300000000000000e+02  2.7300000000000000e+02  2.7300000000000000e+02  2.7300000000000000e+02  2.7300000000000000e+02  2.7300000000000000e+02  2.7300000000000000e+02  2.7300000000000000e+02  2.7300000000000000e+02  2.7300000000000000e+02  2.7300000000000000e+02  2.7300000000000000e+02  2.7300000000000000e+02  2.7300000000000000e+02  2.7300000000000000e+02  2.7300000000000000e+02  2.7300000000000000e+02  2.7300000000000000e+02  2.7300000000000000e+02  2.7300000000000000e+02  2.7300000000000000e+02  2.7300000000000000e+02  2.7300000000000000e+02  2.7300000000000000e+02  2.7300000000000000e+02  2.7300000000000000e+02  2.7300000000000000e+02  2.7300000000000000e+02  2.7300000000000000e+02  2.7300000000000000e+02  2.7300000000000000e+02  2.7300000000000000e+02  2.7300000000000000e+02  2.7300000000000000e+02  2.7300000000000000e+02  2.7300000000000000e+02  2.7300000000000000e+02  2.7300000000000000e+02  2.7300000000000000e+02  2.7300000000000000e+02  2.7300000000000000e+02  2.7300000000000000e+02  2.7300000000000000e+02  2.7300000000000000e+02  2.7300000000000000e+02  2.7300000000000000e+02  2.7300000000000000e+02  2.7300000000000000e+02  2.7300000000000000e+02  2.7300000000000000e+02  2.7300000000000000e+02  2.7300000000000000e+02  2.7300000000000000e+02  2.7300000000000000e+02  2.7300000000000000e+02  2.7300000000000000e+02  2.7300000000000000e+02  2.7300000000000000e+02  2.7300000000000000e+02  2.7300000000000000e+02  2.7300000000000000e+02  2.7300000000000000e+02  2.7300000000000000e+02  2.7300000000000000e+02  2.7300000000000000e+02  2.7300000000000000e+02  2.7300000000000000e+02  2.7300000000000000e+02  2.7300000000000000e+02  2.7300000000000000e+02  2.7300000000000000e+02  2.7300000000000000e+02  2.7300000000000000e+02  2.7300000000000000e+02  2.7300000000000000e+02  2.7300000000000000e+02  2.7300000000000000e+02  2.7300000000000000e+02  2.7300000000000000e+02  2.7300000000000000e+02  2.7300000000000000e+02  2.7300000000000000e+02  2.7300000000000000e+02  2.7300000000000000e+02  2.7300000000000000e+02  2.7300000000000000e+02  2.7300000000000000e+02  2.7300000000000000e+02  2.7300000000000000e+02  2.7300000000000000e+02  2.7300000000000000e+02  2.7300000000000000e+02  2.7300000000000000e+02  2.7300000000000000e+02  2.7300000000000000e+02  2.7300000000000000e+02  2.7300000000000000e+02  2.7300000000000000e+02  2.7300000000000000e+02  2.7300000000000000e+02  3.4000000000000000e+02  3.4000000000000000e+02  3.4000000000000000e+02  3.4000000000000000e+02  3.4000000000000000e+02  3.4000000000000000e+02  3.4000000000000000e+02  3.4000000000000000e+02  3.4000000000000000e+02  3.4000000000000000e+02  3.4000000000000000e+02  3.4000000000000000e+02  3.4000000000000000e+02  3.4000000000000000e+02  3.4000000000000000e+02  3.4000000000000000e+02  3.4000000000000000e+02  3.4000000000000000e+02  3.4000000000000000e+02  3.4000000000000000e+02  3.4000000000000000e+02  3.4000000000000000e+02  3.4000000000000000e+02  3.4000000000000000e+02  3.4000000000000000e+02  3.4000000000000000e+02  3.4000000000000000e+02  3.4000000000000000e+02  3.4000000000000000e+02  3.4000000000000000e+02  3.4000000000000000e+02  3.4000000000000000e+02  3.4000000000000000e+02  3.4000000000000000e+02  3.4000000000000000e+02  3.4000000000000000e+02  3.4000000000000000e+02  3.4000000000000000e+02  3.4000000000000000e+02  3.4000000000000000e+02  3.4000000000000000e+02  3.4000000000000000e+02  3.4000000000000000e+02  3.4000000000000000e+02  3.4000000000000000e+02  3.4000000000000000e+02  3.4000000000000000e+02  3.4000000000000000e+02  3.4000000000000000e+02  3.4000000000000000e+02  3.4000000000000000e+02  3.4000000000000000e+02  3.4000000000000000e+02  3.4000000000000000e+02  3.4000000000000000e+02  3.4000000000000000e+02  3.4000000000000000e+02  3.4000000000000000e+02  3.4000000000000000e+02  3.4000000000000000e+02  3.4000000000000000e+02  3.4000000000000000e+02  3.4000000000000000e+02  3.4000000000000000e+02  3.4000000000000000e+02  3.4000000000000000e+02  3.4000000000000000e+02  3.4000000000000000e+02  3.4000000000000000e+02  3.4000000000000000e+02  3.4000000000000000e+02  3.4000000000000000e+02  3.4000000000000000e+02  3.4000000000000000e+02  3.4000000000000000e+02  3.4000000000000000e+02  3.4000000000000000e+02  3.4000000000000000e+02  3.4000000000000000e+02  3.4000000000000000e+02  3.4000000000000000e+02  3.4000000000000000e+02  3.4000000000000000e+02  3.4000000000000000e+02  3.4000000000000000e+02  3.4000000000000000e+02  3.4000000000000000e+02  3.4000000000000000e+02  3.4000000000000000e+02  3.4000000000000000e+02  3.4000000000000000e+02  3.4000000000000000e+02  3.4000000000000000e+02  3.4000000000000000e+02  3.4000000000000000e+02  3.4000000000000000e+02  3.4000000000000000e+02  3.4000000000000000e+02  3.4000000000000000e+02  3.4000000000000000e+02  3.4000000000000000e+02  3.4000000000000000e+02  3.4000000000000000e+02  3.4000000000000000e+02  3.4000000000000000e+02  3.4000000000000000e+02  3.4000000000000000e+02  3.4000000000000000e+02  3.4000000000000000e+02  3.4000000000000000e+02  3.4000000000000000e+02  3.4000000000000000e+02  3.4000000000000000e+02  3.4000000000000000e+02  3.4000000000000000e+02  3.4000000000000000e+02  3.4000000000000000e+02  3.4000000000000000e+02  3.4000000000000000e+02  3.4000000000000000e+02  3.4000000000000000e+02  3.4000000000000000e+02  3.4000000000000000e+02  3.4000000000000000e+02  3.4000000000000000e+02  3.4000000000000000e+02  3.4000000000000000e+02  3.4000000000000000e+02  3.4000000000000000e+02  3.4000000000000000e+02  3.4000000000000000e+02  3.4000000000000000e+02  3.4000000000000000e+02  3.4000000000000000e+02  3.4000000000000000e+02  3.4000000000000000e+02  3.4000000000000000e+02  3.4000000000000000e+02  3.4000000000000000e+02  3.4000000000000000e+02  3.4000000000000000e+02  3.4000000000000000e+02  3.4000000000000000e+02  3.4000000000000000e+02  3.4000000000000000e+02  3.4000000000000000e+02  3.4000000000000000e+02  3.4000000000000000e+02  3.4000000000000000e+02  3.4000000000000000e+02  3.2805125189285457e+02  3.2925248387870636e+02  3.3115413445675216e+02  3.2735155958585204e+02  2.7299971962428032e+02  2.7299976198794548e+02  3.3314095471443704e+02  3.3492263012239027e+02  2.8647821020537850e+02  3.3231591060021634e+02  3.3514170995466890e+02  2.7300037309878712e+02  2.7300997910750868e+02  2.7300001684412933e+02  2.7300107014821629e+02  2.7299992588543273e+02  2.7300011104281168e+02  2.7301447516738858e+02  2.7299944449097313e+02  3.2608132642050759e+02  3.2448761026402525e+02  3.1839925914378523e+02  3.2582212475939002e+02  3.2343608949317223e+02  2.7852408427873473e+02  2.7300494417441575e+02  2.7300009881055479e+02  2.7299996757932200e+02  2.7300256329695088e+02  2.7309388282087730e+02  2.7306996677604621e+02  2.9096381628115154e+02  2.7299964517117513e+02  3.2486989624939628e+02  3.2137284306327291e+02  3.1411574878675083e+02  3.3572942547963697e+02  3.3538320979029652e+02  3.3488746274097610e+02  2.7541603227457244e+02  2.7302261855205893e+02  2.7300701838892934e+02  2.7302951456347739e+02  2.7300331861390333e+02  2.7307307374203322e+02  2.7301646897012591e+02  2.7310599869138093e+02  2.7304064481055957e+02  2.7310022880139331e+02  2.7299948360784919e+02  3.1585603499098625e+02  3.1804127883178541e+02  3.1527896670547494e+02  3.3642717199136655e+02  2.7299943971623810e+02  2.8103750586571499e+02  2.7299995221084225e+02  2.7309164639292254e+02  2.7306197937399696e+02  2.7299919308221251e+02  3.1591317549266324e+02  2.7302428765872389e+02  2.7299986048915218e+02  2.7309272805631377e+02  2.7306061683900009e+02  2.7301293269716859e+02  2.7302780499343004e+02  2.7300579736204020e+02  2.7300509439092679e+02  2.7300792184672275e+02  3.2376858010676722e+02  2.7540225392513429e+02  2.7431775990170468e+02  2.7299995861863937e+02  3.3632220037385702e+02  3.1855503611805841e+02  2.7299990049014747e+02  2.7299991421765236e+02  2.7299934136113575e+02  3.3494824811760571e+02  3.1763614194161642e+02  3.3276451157530636e+02  3.2762990954226882e+02  3.2711545463183967e+02  3.2449256188940996e+02  3.2183095140831517e+02  3.1934194017279043e+02  2.7299986867021431e+02  2.7299943385293858e+02  2.7299982036778670e+02  2.7299925740867332e+02  2.7299981545451817e+02  2.7299965393952169e+02  2.7306032408114248e+02  2.7307259046356273e+02  2.7300032530466547e+02  2.7299992297655189e+02  2.7301202893692067e+02  2.7312056362631404e+02  2.7304909657961781e+02  2.7299949123117023e+02  3.2844823775748750e+02  3.2998135173404984e+02  3.3213774043053871e+02  3.2555902605542781e+02  3.3409553717775003e+02  3.2517303810093739e+02  3.2758490785707835e+02  2.7382246051463164e+02  2.9127316310797823e+02  2.7382540865853173e+02  2.8180475820825006e+02  2.7299995335110594e+02  2.7299922775211212e+02  2.7299945690904258e+02  2.7299993712307935e+02  2.7299954547458339e+02  2.7299908075121806e+02  2.7299999918292144e+02  2.7299929991567342e+02  2.7343244743190553e+02  2.7299995033616671e+02  2.7299990091146225e+02  3.3481320096561353e+02  3.3689419716114213e+02  3.3610978819342449e+02  3.3032415609290058e+02  3.1708431832692185e+02  3.1729315785174066e+02  3.1795099138615984e+02  3.1593902596205083e+02  3.1753922165112198e+02  2.7299995862808424e+02  2.7307075255868472e+02  2.7300125467339257e+02  2.7301807152780447e+02  2.7299993290675928e+02  2.7299953291330257e+02  2.7299948199885000e+02  2.7300613755109185e+02  2.7300026306991487e+02  2.7300270996627870e+02  2.7299972254240004e+02  2.7300010463978947e+02  2.7299983664437326e+02  2.7300007029933698e+02  2.7299997991395151e+02  2.7299943316820844e+02  2.7299920687630066e+02  2.7299994787116475e+02  2.7299989407712241e+02  2.7299952863014954e+02  2.7299899744290855e+02  2.7299937747436610e+02  2.7299951353044725e+02  2.7310565397772285e+02  2.7301061274767818e+02  2.7309822561125196e+02  2.7303981862658571e+02  2.7308339685514767e+02  2.7308409290954074e+02  2.7307549470051561e+02  2.7302561182796723e+02  2.7302375780159213e+02  2.7307454990091031e+02  2.7305744508106335e+02  2.7300412605161381e+02  2.7300688678211424e+02  2.7307257136695176e+02  2.7303432986060091e+02  2.7300506825894990e+02  2.7300612813785466e+02  2.7300625802605322e+02  2.7307495037324981e+02  2.7304890232535666e+02  2.7301971718095967e+02  2.7301324097772493e+02  2.7299994864311327e+02  2.7299999990812364e+02  3.2883784606857733e+02  3.3054221685480064e+02  3.2463241229160531e+02  3.2410148252231028e+02  3.2162880839377561e+02  3.2482324903656769e+02  3.3483474021979339e+02  3.2361107738622565e+02  3.2167712106473817e+02  3.3504211058519411e+02  3.2124132440581349e+02  3.2613548387144391e+02  3.0748481233667707e+02  3.1516546373768068e+02  2.9497821279911489e+02  2.8715371758684762e+02  2.8030948890562399e+02  2.7712765268759591e+02  2.7461373177330410e+02  2.7376523678988627e+02  2.7327575067535469e+02  2.7503105103905762e+02  2.7311812221613741e+02  2.7302052247975888e+02  2.7306435366820193e+02  2.7300861530378364e+02  2.7301689695406986e+02  2.7299973363575441e+02  2.7300174424959260e+02  2.7299969587086434e+02  2.7300003911848205e+02  2.7299959249493111e+02  2.7299953548548643e+02  2.7299955273452292e+02  2.7299964795396374e+02  2.7299963610149518e+02  2.7299963485676517e+02  2.7299962908748449e+02  2.7299968774386815e+02  2.7299969586166930e+02  2.7299969844195090e+02  2.7299970252984184e+02  2.7299973577189593e+02  2.7299973553293830e+02  2.7299975455205623e+02  2.7299976391548631e+02  2.7299977962072148e+02  2.7299978005310004e+02  2.7299980009331694e+02  2.7299980766354054e+02  2.7299981939264637e+02  2.7299981528939344e+02  2.7299984331409871e+02  2.7299985707433711e+02  2.7299985474096258e+02  2.7299985342878608e+02  2.7299987268679740e+02  2.7299988072538770e+02  2.7299988589103413e+02  2.7299988909275709e+02  2.7299990390091375e+02  2.7299991122639636e+02  2.7299991579728214e+02  2.7299991063243709e+02  2.7299992467457253e+02  2.7299993093068878e+02  2.7299993650648850e+02  2.7299994243973407e+02  2.7299994861240526e+02  2.7299995482650331e+02  2.7299995939486564e+02  2.7299996557716344e+02  2.7299996981013851e+02  2.7299997601143002e+02  2.7299997942003023e+02  2.7299998560888503e+02  2.7299998847145662e+02  2.7299999461931282e+02  2.7299999680118810e+02  2.7299999088217163e+02  2.7300000298627936e+02  2.7300000464297381e+02  2.7300001078853234e+02  2.7300001208671148e+02  2.7300001807517469e+02  2.7300001894132026e+02  2.7300002481954630e+02  2.7300002538114160e+02  2.7300003107330747e+02  2.7300003100594819e+02  2.7299995335650129e+02  2.7300001951276704e+02  2.7300003066551750e+02  2.7300003679072410e+02  2.7300000080336241e+02  2.7300003643998059e+02  2.7300004243599562e+02  2.7299996114428853e+02  2.7300004355183870e+02  2.7300004871432088e+02  2.7300007828658545e+02  2.7300007192331515e+02  2.7300005372578852e+02  2.7300006908563012e+02  2.7300005846968901e+02  2.7300006882401544e+02  2.7300006288873874e+02  2.7300007029723662e+02  2.7300006705596621e+02  2.7300007283921229e+02  2.7300007059474717e+02  2.7300011685188815e+02  2.7300009858953518e+02  2.7299979795470063e+02  2.7299989211697772e+02  2.7299986698447771e+02  2.7299991878360527e+02  2.7300027658863462e+02  2.7300051284914326e+02  2.7300032791574750e+02  2.7299980825804300e+02  2.7300307278496371e+02  2.7300192869645196e+02  2.7300021333074932e+02  2.7300115647297810e+02  2.7300014819224151e+02  2.7300066542337407e+02  2.7300011471447692e+02  2.7300037415903921e+02  2.7300009964033870e+02  2.7300231409930183e+02  2.7300025691812914e+02  2.7299958921253551e+02  2.7299963779263078e+02  2.7300006234555474e+02  2.7300008882832674e+02  2.7300389690655976e+02  2.7300217597493349e+02  2.7301582163964457e+02  2.7302300337348282e+02  2.7301957218790426e+02  2.7301167409794340e+02  2.7309289405378507e+02  2.7312488539545978e+02  2.7299961416689030e+02  2.7299964899139286e+02  2.7300549389464703e+02  2.7308122440029388e+02  2.7305174740956829e+02  2.7300649279277502e+02  2.7303095202679032e+02  2.7300332080824393e+02  2.7301714365616124e+02  2.7300151761520300e+02  2.7299961569757016e+02  2.7299965826191266e+02  2.7340735241257562e+02  2.7351458485377390e+02  2.7299964368342631e+02  2.7299959575076298e+02  2.7299966751627767e+02  2.7299968302001452e+02  2.7299969245054979e+02  2.7299970855427654e+02  2.7299971157468292e+02  2.7299973155810801e+02  2.7299973831126528e+02  2.729