<?xml version="1.0"?>
<VTKFile type="UnstructuredGrid"  version="0.1"  >
<UnstructuredGrid>
<Piece  NumberOfPoints="22947" NumberOfCells="45411">
<Points>
<DataArray  type="Float64"  NumberOfComponents="3"  format="ascii">0 0 0  5 0 0  5 1 0  0 1 0  1.5 0.2 0  1.3 0.6 0  1.7 0.6 0  0.09988181715350253 0 0  0.1997636343069831 0 0  0.2996454514604577 0 0  0.3995272686139624 0 0  0.4994090857674671 0 0  0.5992909029209642 0 0  0.6991727200743116 0 0  0.7977480796387948 0 0  0.8833077882008854 0 0  0.9552465290058831 0 0  1.015928428880551 0 0  1.06737033859586 0 0  1.111317272793253 0 0  1.14931422653285 0 0  1.182777857033489 0 0  1.213067364367625 0 0  1.241543873852857 0 0  1.269517245850398 0 0  1.297484154653317 0 0  1.325451063456236 0 0  1.353417972259155 0 0  1.381384881062075 0 0  1.409351789864994 0 0  1.437318698667913 0 0  1.465285607470832 0 0  1.493252516273751 0 0  1.521219425076671 0 0  1.54918633387959 0 0  1.577153242682509 0 0  1.605120151485428 0 0  1.633087060288348 0 0  1.661053969091267 0 0  1.689020877894186 0 0  1.716987786697105 0 0  1.744954695500025 0 0  1.772921604302944 0 0  1.800888513105863 0 0  1.828855421908782 0 0  1.856822330711702 0 0  1.884789239514621 0 0  1.91275614831754 0 0  1.940723057120459 0 0  1.968689965923379 0 0  1.996656874726308 0 0  2.02462378352929 0 0  2.052590692332318 0 0  2.080557601135361 0 0  2.108524509938404 0 0  2.136491418741448 0 0  2.164458327544491 0 0  2.192425236347535 0 0  2.220392145150578 0 0  2.248359053953621 0 0  2.276325962756665 0 0  2.304292871559708 0 0  2.332259780362751 0 0  2.360226689165795 0 0  2.388193597968838 0 0  2.416160506771881 0 0  2.444127415574925 0 0  2.472094324377968 0 0  2.500061233181011 0 0  2.528028141984055 0 0  2.555995050787098 0 0  2.583961959590142 0 0  2.611928868393185 0 0  2.639895777196228 0 0  2.667862685999272 0 0  2.695829594802315 0 0  2.723796503605358 0 0  2.751763412408402 0 0  2.779730321211445 0 0  2.807697230014488 0 0  2.835664138817531 0 0  2.863631047620574 0 0  2.891597956423618 0 0  2.919564865226662 0 0  2.947531774029705 0 0  2.975498682832749 0 0  3.003466037710658 0 0  3.031764566682743 0 0  3.061630572857904 0 0  3.094429607623581 0 0  3.13021238288224 0 0  3.166169837057582 0 0  3.202127291232924 0 0  3.238084745408265 0 0  3.274042199583607 0 0  3.309999653758949 0 0  3.34595710793429 0 0  3.381914562109632 0 0  3.417872016284973 0 0  3.453829470460315 0 0  3.489786924635657 0 0  3.525744378810998 0 0  3.56170183298634 0 0  3.597659287161681 0 0  3.633616741337023 0 0  3.669574195512365 0 0  3.705531649687707 0 0  3.741489103863048 0 0  3.77744655803839 0 0  3.813404012213732 0 0  3.849361466389073 0 0  3.885318920564415 0 0  3.921276374739756 0 0  3.957233828915097 0 0  3.993191283090439 0 0  4.02914873726578 0 0  4.065106191441122 0 0  4.101063645616464 0 0  4.137021099791806 0 0  4.172978553967147 0 0  4.208936008142489 0 0  4.24489346231783 0 0  4.280850916493172 0 0  4.316808370668514 0 0  4.352765824843855 0 0  4.388723279019197 0 0  4.424680733194538 0 0  4.46063818736988 0 0  4.496595641545222 0 0  4.532553095720563 0 0  4.568510549895905 0 0  4.604468004071246 0 0  4.640425458246588 0 0  4.676382912421929 0 0  4.712340366597271 0 0  4.748297820772613 0 0  4.784255274947953 0 0  4.820212729123295 0 0  4.856170183298635 0 0  4.892127637473977 0 0  4.928085091649318 0 0  4.964042545824659 0 0  5 0.0328500670419322 0  5 0.06090401573905966 0  5 0.08486207734983149 0  5 0.1054388876402908 0  5 0.1251669432582367 0  5 0.1448949988761606 0  5 0.1646230544940819 0  5 0.1843511101120033 0  5 0.2040791657299246 0  5 0.2238072213478459 0  5 0.2435352769657672 0  5 0.2632633325836884 0  5 0.2829913882016097 0  5 0.3027194438195311 0  5 0.3224474994374524 0  5 0.3421755550553737 0  5 0.3619036106732951 0  5 0.3816316662912164 0  5 0.4013597219091377 0  5 0.421087777527059 0  5 0.4408158331449803 0  5 0.4605438887629016 0  5 0.4802719443808229 0  5 0.4999999999987551 0  5 0.519728055616775 0  5 0.5394561112348057 0  5 0.5591841668528366 0  5 0.5789122224708674 0  5 0.5986402780888981 0  5 0.6183683337069288 0  5 0.6380963893249596 0  5 0.6578244449429903 0  5 0.6775525005610212 0  5 0.6972805561790519 0  5 0.7170086117970828 0  5 0.7367366674151135 0  5 0.7564647230331443 0  5 0.776192778651175 0  5 0.7959208342692058 0  5 0.8156488898872365 0  5 0.8353769455052672 0  5 0.855105001123298 0  5 0.8748330567413287 0  5 0.8945611123593595 0  5 0.9151379226498687 0  5 0.9390959842606995 0  5 0.9671499329579316 0  4.964042545824707 1 0  4.928085091649415 1 0  4.892127637474122 1 0  4.856170183298829 1 0  4.820212729123536 1 0  4.784255274948244 1 0  4.748297820772951 1 0  4.712340366597658 1 0  4.676382912422365 1 0  4.640425458247072 1 0  4.604468004071779 1 0  4.568510549896486 1 0  4.532553095721194 1 0  4.496595641545901 1 0  4.460638187370608 1 0  4.424680733195316 1 0  4.388723279020023 1 0  4.35276582484473 1 0  4.316808370669437 1 0  4.280850916494145 1 0  4.244893462318852 1 0  4.208936008143559 1 0  4.172978553968266 1 0  4.137021099792974 1 0  4.101063645617681 1 0  4.065106191442388 1 0  4.029148737267096 1 0  3.993191283091803 1 0  3.95723382891651 1 0  3.921276374741217 1 0  3.885318920565925 1 0  3.849361466390632 1 0  3.813404012215339 1 0  3.777446558040046 1 0  3.741489103864753 1 0  3.705531649689461 1 0  3.669574195514167 1 0  3.633616741338875 1 0  3.597659287163582 1 0  3.561701832988289 1 0  3.525744378812996 1 0  3.489786924637703 1 0  3.45382947046241 1 0  3.417872016287117 1 0  3.381914562111825 1 0  3.345957107936532 1 0  3.309999653761239 1 0  3.274042199585946 1 0  3.238084745410653 1 0  3.20212729123536 1 0  3.166169837060067 1 0  3.130212382884775 1 0  3.094429607626076 1 0  3.061630572860181 1 0  3.031764566684895 1 0  3.00346603771278 1 0  2.97549868283491 1 0  2.947531774031904 1 0  2.919564865228899 1 0  2.891597956425894 1 0  2.863631047622888 1 0  2.835664138819883 1 0  2.807697230016877 1 0  2.779730321213872 1 0  2.751763412410866 1 0  2.723796503607861 1 0  2.695829594804855 1 0  2.66786268600185 1 0  2.639895777198844 1 0  2.611928868395839 1 0  2.583961959592834 1 0  2.555995050789828 1 0  2.528028141986823 1 0  2.500061233183817 1 0  2.472094324380812 1 0  2.444127415577806 1 0  2.416160506774801 1 0  2.388193597971795 1 0  2.36022668916879 1 0  2.332259780365785 1 0  2.304292871562779 1 0  2.276325962759774 1 0  2.248359053956768 1 0  2.220392145153763 1 0  2.192425236350757 1 0  2.164458327547752 1 0  2.136491418744747 1 0  2.108524509941741 1 0  2.080557601138736 1 0  2.05259069233573 1 0  2.024623783532725 1 0  1.99665687472972 1 0  1.968689965926714 1 0  1.940723057123709 1 0  1.912756148320703 1 0  1.884789239517698 1 0  1.856822330714692 1 0  1.828855421911687 1 0  1.800888513108681 1 0  1.772921604305676 1 0  1.74495469550267 1 0  1.716987786699665 1 0  1.68902087789666 1 0  1.661053969093654 1 0  1.633087060290649 1 0  1.605120151487644 1 0  1.577153242684639 1 0  1.549186333881632 1 0  1.521219425078627 1 0  1.493252516275621 1 0  1.465285607472617 1 0  1.437318698669611 1 0  1.409351789866606 1 0  1.3813848810636 1 0  1.353417972260594 1 0  1.32545106345759 1 0  1.297484154654584 1 0  1.269517245851579 1 0  1.241543873853952 1 0  1.213067364368676 1 0  1.182777857034534 1 0  1.149314226533915 1 0  1.111317272794346 1 0  1.067370338596986 1 0  1.015928428881706 1 0  0.9552465290070451 1 0  0.8833077882020213 1 0  0.7977480796398604 1 0  0.6991727200751363 1 0  0.5992909029215436 1 0  0.4994090857679536 1 0  0.3995272686143618 1 0  0.2996454514607718 1 0  0.1997636343071827 1 0  0.09988181715359001 1 0  0 0.8999999999995836 0  0 0.7999999999999998 0  0 0.7000000000006934 0  0 0.6000000000013869 0  0 0.5000000000020587 0  0 0.4000000000016644 0  0 0.3000000000012483 0  0 0.2000000000008322 0  0 0.100000000000416 0  1.699751384242739 0.6099691771530924 0  1.699006155066563 0.6199135693842884 0  1.697766165232479 0.6298084533184788 0  1.696034497548046 0.6396292287470388 0  1.693815457209259 0.649351479681627 0  1.691114561101324 0.6589510350634165 0  1.687938524092297 0.6684040288434037 0  1.684295242284711 0.6776869594669508 0  1.680193773487681 0.6867767480162182 0  1.67564431456081 0.6956507959321996 0  1.670658176173392 0.7042870409263378 0  1.665247754668492 0.7126640118983073 0  1.659426501197733 0.720760882390984 0  1.653208888346202 0.7285575222681306 0  1.646610374031267 0.7360345479149025 0  1.639647363235856 0.7431733702239103 0  1.632337167092531 0.7499562409702357 0  1.62469795989353 0.756366296874971 0  1.616748733919558 0.7623876015223461 0  1.608509252208739 0.7680051849946904 0  1.599999999406289 0.7732050810996667 0  1.591242130860608 0.7779743620750351 0  1.582257419988525 0.7823011707500295 0  1.573068204170437 0.7861747500046861 0  1.563697329302744 0.7895854694846042 0  1.554168092871136 0.7925248496031199 0  1.544504185999879 0.7949855826169927 0  1.534729634727922 0.7969615507444667 0  1.524868740094186 0.7984478414247124 0  1.514946017836289 0.7994407595022575 0  1.504986137413824 0.7999378364234504 0  1.495013860716175 0.7999378363768156 0  1.485053980351481 0.7994407593664496 0  1.475131258156531 0.7984478412054987 0  1.465270363613604 0.7969615504520329 0  1.4554958123743 0.7949855822459098 0  1.445831905597438 0.7925248491722436 0  1.436302669250897 0.7895854689986533 0  1.426931794485273 0.786174749477091 0  1.417742578777908 0.7823011701934227 0  1.408757867959409 0.7779743614700931 0  1.399999999478033 0.7732050804555297 0  1.391490746737941 0.7680051843143844 0  1.383251265066765 0.7623876007935619 0  1.375302039213222 0.7563662961626294 0  1.367662832117841 0.7499562402733849 0  1.360352636037667 0.7431733695153243 0  1.353389625336735 0.736034547233771 0  1.346791111115898 0.7285575216270866 0  1.340573498342716 0.7207608817842938 0  1.33475224496031 0.7126640113538593 0  1.329341823531611 0.7042870404435957 0  1.324355685207748 0.6956507955072012 0  1.319806226317615 0.6867767476119111 0  1.315704757542792 0.6
[...]
<PointData  Vectors="Velocity"> 
<DataArray  type="Float64"  Name="Velocity"  NumberOfComponents="3" format="ascii">0.0000000000000000e+00 0.0000000000000000e+00 0.0000000000000000e+00  0.0000000000000000e+00 0.0000000000000000e+00 0.0000000000000000e+00  0.0000000000000000e+00 0.0000000000000000e+00 0.0000000000000000e+00  0.0000000000000000e+00 0.0000000000000000e+00 0.0000000000000000e+00  0.0000000000000000e+00 0.0000000000000000e+00 0.0000000000000000e+00  0.0000000000000000e+00 0.0000000000000000e+00 0.0000000000000000e+00  0.0000000000000000e+00 0.0000000000000000e+00 0.0000000000000000e+00  0.0000000000000000e+00 0.0000000000000000e+00 0.0000000000000000e+00  0.0000000000000000e+00 0.0000000000000000e+00 0.0000000000000000e+00  0.0000000000000000e+00 0.0000000000000000e+00 0.0000000000000000e+00  0.0000000000000000e+00 0.0000000000000000e+00 0.0000000000000000e+00  0.0000000000000000e+00 0.0000000000000000e+00 0.0000000000000000e+00  0.0000000000000000e+00 0.0000000000000000e+00 0.0000000000000000e+00  0.0000000000000000e+00 0.0000000000000000e+00 0.0000000000000000e+00  0.0000000000000000e+00 0.0000000000000000e+00 0.0000000000000000e+00  0.0000000000000000e+00 0.0000000000000000e+00 0.0000000000000000e+00  0.0000000000000000e+00 0.0000000000000000e+00 0.0000000000000000e+00  0.0000000000000000e+00 0.0000000000000000e+00 0.0000000000000000e+00  0.0000000000000000e+00 0.0000000000000000e+00 0.0000000000000000e+00  0.0000000000000000e+00 0.0000000000000000e+00 0.0000000000000000e+00  0.0000000000000000e+00 0.0000000000000000e+00 0.0000000000000000e+00  0.0000000000000000e+00 0.0000000000000000e+00 0.0000000000000000e+00  0.0000000000000000e+00 0.0000000000000000e+00 0.0000000000000000e+00  0.0000000000000000e+00 0.0000000000000000e+00 0.0000000000000000e+00  0.0000000000000000e+00 0.0000000000000000e+00 0.0000000000000000e+00  0.0000000000000000e+00 0.0000000000000000e+00 0.0000000000000000e+00  0.0000000000000000e+00 0.0000000000000000e+00 0.0000000000000000e+00  0.0000000000000000e+00 0.0000000000000000e+00 0.0000000000000000e+00  0.0000000000000000e+00 0.0000000000000000e+00 0.0000000000000000e+00  0.0000000000000000e+00 0.0000000000000000e+00 0.0000000000000000e+00  0.0000000000000000e+00 0.0000000000000000e+00 0.0000000000000000e+00  0.0000000000000000e+00 0.0000000000000000e+00 0.0000000000000000e+00  0.0000000000000000e+00 0.0000000000000000e+00 0.0000000000000000e+00  0.0000000000000000e+00 0.0000000000000000e+00 0.0000000000000000e+00  0.0000000000000000e+00 0.0000000000000000e+00 0.0000000000000000e+00  0.0000000000000000e+00 0.0000000000000000e+00 0.0000000000000000e+00  0.0000000000000000e+00 0.0000000000000000e+00 0.0000000000000000e+00  0.0000000000000000e+00 0.0000000000000000e+00 0.0000000000000000e+00  0.0000000000000000e+00 0.0000000000000000e+00 0.0000000000000000e+00  0.0000000000000000e+00 0.0000000000000000e+00 0.0000000000000000e+00  0.0000000000000000e+00 0.0000000000000000e+00 0.0000000000000000e+00  0.0000000000000000e+00 0.0000000000000000e+00 0.0000000000000000e+00  0.0000000000000000e+00 0.0000000000000000e+00 0.0000000000000000e+00  0.0000000000000000e+00 0.0000000000000000e+00 0.0000000000000000e+00  0.0000000000000000e+00 0.0000000000000000e+00 0.0000000000000000e+00  0.0000000000000000e+00 0.0000000000000000e+00 0.0000000000000000e+00  0.0000000000000000e+00 0.0000000000000000e+00 0.0000000000000000e+00  0.0000000000000000e+00 0.0000000000000000e+00 0.0000000000000000e+00  0.0000000000000000e+00 0.0000000000000000e+00 0.0000000000000000e+00  0.0000000000000000e+00 0.0000000000000000e+00 0.0000000000000000e+00  0.0000000000000000e+00 0.0000000000000000e+00 0.0000000000000000e+00  0.0000000000000000e+00 0.0000000000000000e+00 0.0000000000000000e+00  0.0000000000000000e+00 0.0000000000000000e+00 0.0000000000000000e+00  0.0000000000000000e+00 0.0000000000000000e+00 0.0000000000000000e+00  0.0000000000000000e+00 0.0000000000000000e+00 0.0000000000000000e+00  0.0000000000000000e+00 0.0000000000000000e+00 0.0000000000000000e+00  0.0000000000000000e+00 0.0000000000000000e+00 0.0000000000000000e+00  0.0000000000000000e+00 0.0000000000000000e+00 0.0000000000000000e+00  0.0000000000000000e+00 0.0000000000000000e+00 0.0000000000000000e+00  0.0000000000000000e+00 0.0000000000000000e+00 0.0000000000000000e+00  0.0000000000000000e+00 0.0000000000000000e+00 0.0000000000000000e+00  0.0000000000000000e+00 0.0000000000000000e+00 0.0000000000000000e+00  0.0000000000000000e+00 0.0000000000000000e+00 0.0000000000000000e+00  0.0000000000000000e+00 0.0000000000000000e+00 0.0000000000000000e+00  0.0000000000000000e+00 0.0000000000000000e+00 0.0000000000000000e+00  0.0000000000000000e+00 0.0000000000000000e+00 0.0000000000000000e+00  0.0000000000000000e+00 0.0000000000000000e+00 0.0000000000000000e+00  0.0000000000000000e+00 0.0000000000000000e+00 0.0000000000000000e+00  0.0000000000000000e+00 0.0000000000000000e+00 0.0000000000000000e+00  0.0000000000000000e+00 0.0000000000000000e+00 0.0000000000000000e+00  0.0000000000000000e+00 0.0000000000000000e+00 0.0000000000000000e+00  0.0000000000000000e+00 0.0000000000000000e+00 0.0000000000000000e+00  0.0000000000000000e+00 0.0000000000000000e+00 0.0000000000000000e+00  0.0000000000000000e+00 0.0000000000000000e+00 0.0000000000000000e+00  0.0000000000000000e+00 0.0000000000000000e+00 0.0000000000000000e+00  0.0000000000000000e+00 0.0000000000000000e+00 0.0000000000000000e+00  0.0000000000000000e+00 0.0000000000000000e+00 0.0000000000000000e+00  0.0000000000000000e+00 0.0000000000000000e+00 0.0000000000000000e+00  0.0000000000000000e+00 0.0000000000000000e+00 0.0000000000000000e+00  0.0000000000000000e+00 0.0000000000000000e+00 0.0000000000000000e+00  0.0000000000000000e+00 0.0000000000000000e+00 0.0000000000000000e+00  0.0000000000000000e+00 0.0000000000000000e+00 0.0000000000000000e+00  0.0000000000000000e+00 0.0000000000000000e+00 0.0000000000000000e+00  0.0000000000000000e+00 0.0000000000000000e+00 0.0000000000000000e+00  0.0000000000000000e+00 0.0000000000000000e+00 0.0000000000000000e+00  0.0000000000000000e+00 0.0000000000000000e+00 0.0000000000000000e+00  0.0000000000000000e+00 0.0000000000000000e+00 0.0000000000000000e+00  0.0000000000000000e+00 0.0000000000000000e+00 0.0000000000000000e+00  0.0000000000000000e+00 0.0000000000000000e+00 0.0000000000000000e+00  0.0000000000000000e+00 0.0000000000000000e+00 0.0000000000000000e+00  0.0000000000000000e+00 0.0000000000000000e+00 0.0000000000000000e+00  0.0000000000000000e+00 0.0000000000000000e+00 0.0000000000000000e+00  0.0000000000000000e+00 0.0000000000000000e+00 0.0000000000000000e+00  0.0000000000000000e+00 0.0000000000000000e+00 0.0000000000000000e+00  0.0000000000000000e+00 0.0000000000000000e+00 0.0000000000000000e+00  0.0000000000000000e+00 0.0000000000000000e+00 0.0000000000000000e+00  0.0000000000000000e+00 0.0000000000000000e+00 0.0000000000000000e+00  0.0000000000000000e+00 0.0000000000000000e+00 0.0000000000000000e+00  0.0000000000000000e+00 0.0000000000000000e+00 0.0000000000000000e+00  0.0000000000000000e+00 0.0000000000000000e+00 0.0000000000000000e+00  0.0000000000000000e+00 0.0000000000000000e+00 0.0000000000000000e+00  0.0000000000000000e+00 0.0000000000000000e+00 0.0000000000000000e+00  0.0000000000000000e+00 0.0000000000000000e+00 0.0000000000000000e+00  0.0000000000000000e+00 0.0000000000000000e+00 0.0000000000000000e+00  0.0000000000000000e+00 0.0000000000000000e+00 0.0000000000000000e+00  0.0000000000000000e+00 0.0000000000000000e+00 0.0000000000000000e+00  0.0000000000000000e+00 0.0000000000000000e+00 0.0000000000000000e+00  0.0000000000000000e+00 0.0000000000000000e+00 0.0000000000000000e+00  0.0000000000000000e+00 0.0000000000000000e+00 0.0000000000000000e+00  0.0000000000000000e+00 0.0000000000000000e+00 0.0000000000000000e+00  0.0000000000000000e+00 0.0000000000000000e+00 0.0000000000000000e+00  0.0000000000000000e+00 0.0000000000000000e+00 0.0000000000000000e+00  0.0000000000000000e+00 0.0000000000000000e+00 0.0000000000000000e+00  0.0000000000000000e+00 0.0000000000000000e+00 0.0000000000000000e+00  0.0000000000000000e+00 0.0000000000000000e+00 0.0000000000000000e+00  0.0000000000000000e+00 0.0000000000000000e+00 0.0000000000000000e+00  0.0000000000000000e+00 0.0000000000000000e+00 0.0000000000000000e+00  0.0000000000000000e+00 0.0000000000000000e+00 0.0000000000000000e+00  0.0000000000000000e+00 0.0000000000000000e+00 0.0000000000000000e+00  0.0000000000000000e+00 0.0000000000000000e+00 0.0000000000000000e+00  0.0000000000000000e+00 0.0000000000000000e+00 0.0000000000000000e+00  0.0000000000000000e+00 0.0000000000000000e+00 0.0000000000000000e+00  0.0000000000000000e+00 0.0000000000000000e+00 0.0000000000000000e+00  0.0000000000000000e+00 0.0000000000000000e+00 0.0000000000000000e+00  0.0000000000000000e+00 0.0000000000000000e+00 0.0000000000000000e+00  0.0000000000000000e+00 0.0000000000000000e+00 0.0000000000000000e+00  0.0000000000000000e+00 0.0000000000000000e+00 0.0000000000000000e+00  0.0000000000000000e+00 0.0000000000000000e+00 0.0000000000000000e+00  0.0000000000000000e+00 0.0000000000000000e+00 0.0000000000000000e+00  0.0000000000000000e+00 0.0000000000000000e+00 0.0000000000000000e+00  0.0000000000000000e+00 0.0000000000000000e+00 0.0000000000000000e+00  0.0000000000000000e+00 0.0000000000000000e+00 0.0000000000000000e+00  0.0000000000000000e+00 0.0000000000000000e+00 0.0000000000000000e+00  0.0000000000000000e+00 0.0000000000000000e+00 0.0000000000000000e+00  0.0000000000000000e+00 0.0000000000000000e+00 0.0000000000000000e+00  0.0000000000000000e+00 0.0000000000000000e+00 0.0000000000000000e+00  0.0000000000000000e+00 0.0000000000000000e+00 0.0000000000000000e+00  0.0000000000000000e+00 0.0000000000000000e+00 0.0000000000000000e+00  0.0000000000000000e+00 0.0000000000000000e+00 0.0000000000000000e+00  0.0000000000000000e+00 0.0000000000000000e+00 0.0000000000000000e+00  0.0000000000000000e+00 0.0000000000000000e+00 0.0000000000000000e+00  0.0000000000000000e+00 0.0000000000000000e+00 0.0000000000000000e+00  1.7649274436390489e-01 1.8271574296561178e-03 0.0000000000000000e+00  3.0074817778278318e-01 4.5556273739809005e-03 0.0000000000000000e+00  3.8149865410004508e-01 7.3705090943836605e-03 0.0000000000000000e+00  4.3190392970482944e-01 9.8422630024921232e-03 0.0000000000000000e+00  4.6568585585360411e-01 1.2135806428508557e-02 0.0000000000000000e+00  4.8806501475902531e-01 1.4269218460163607e-02 0.0000000000000000e+00  5.0211510642464863e-01 1.6190170783721557e-02 0.0000000000000000e+00  5.1060452154840930e-01 1.7943129281023998e-02 0.0000000000000000e+00  5.1568937662722936e-01 1.9548487956720258e-02 0.0000000000000000e+00  5.1887366075016161e-01 2.1047633269225870e-02 0.0000000000000000e+00  5.2109636158914641e-01 2.2382364756788189e-02 0.0000000000000000e+00  5.2288760820694502e-01 2.3682106003975453e-02 0.0000000000000000e+00  5.2452703810928103e-01 2.4849935375233081e-02 0.0000000000000000e+00  5.2614145034392368e-01 2.5928167610229102e-02 0.0000000000000000e+00  5.2778317407182185e-01 2.6910376112133046e-02 0.0000000000000000e+00  5.2947117642019437e-01 2.7798233337534589e-02 0.0000000000000000e+00  5.3120234148593493e-01 2.8549918825323373e-02 0.0000000000000000e+00  5.3297620903944187e-01 2.9223602409455811e-02 0.0000000000000000e+00  5.3478436094699089e-01 2.9770023366229480e-02 0.0000000000000000e+00  5.3661984376293537e-01 3.0206895718429071e-02 0.0000000000000000e+00  5.3847495884024110e-01 3.0531311639304309e-02 0.0000000000000000e+00  5.4034235376585127e-01 3.0739105394810631e-02 0.0000000000000000e+00  5.4221477558688969e-01 3.0833361263714353e-02 0.0000000000000000e+00  5.4408503454790302e-01 3.0817176963506457e-02 0.0000000000000000e+00  5.4594598555673068e-01 3.0682572131387972e-02 0.0000000000000000e+00  5.4778996666028612e-01 3.0448508329404027e-02 0.0000000000000000e+00  5.4961278250982426e-01 3.0092872879742553e-02 0.0000000000000000e+00  5.5140514823592768e-01 2.9631312160760013e-02 0.0000000000000000e+00  5.5316152519495843e-01 2.9069543986611213e-02 0.0000000000000000e+00  5.5487562224406872e-01 2.8403240313190470e-02 0.0000000000000000e+00  5.5653968517013463e-01 2.7621333735490552e-02 0.0000000000000000e+00  5.5815073421555095e-01 2.6782450445068440e-02 0.0000000000000000e+00  5.5970058697940062e-01 2.5809332741156564e-02 0.0000000000000000e+00  5.6118087800951177e-01 2.4763032466188040e-02 0.0000000000000000e+00  5.6257954124220488e-01 2.3683530460251664e-02 0.0000000000000000e+00  5.6388433115303915e-01 2.2461170425150084e-02 0.0000000000000000e+00  5.6502953312582682e-01 2.1188115707823640e-02 0.0000000000000000e+00  5.6589283069739837e-01 1.9845747970744718e-02 0.0000000000000000e+00  5.6617605923055547e-01 1.8431599083854940e-02 0.0000000000000000e+00  5.6524635976474824e-01 1.6916433244978310e-02 0.0000000000000000e+00  5.6188598932308109e-01 1.5388986468109369e-02 0.0000000000000000e+00  5.5399096777609247e-01 1.3661720317360364e-02 0.0000000000000000e+00  5.3828524310085180e-01 1.1804804379344943e-02 0.0000000000000000e+00  5.1033744515449553e-01 9.7895502098165246e-03 0.0000000000000000e+00  4.6256455660904355e-01 7.4782725448254064e-03 0.0000000000000000e+00  3.7600088741941862e-01 4.8354588018471277e-03 0.0000000000000000e+00  2.2733394266155083e-01 2.0210762395782809e-03 0.0000000000000000e+00  0.0000000000000000e+00 0.0000000000000000e+00 0.0000000000000000e+00  0.0000000000000000e+00 0.0000000000000000e+00 0.0000000000000000e+00  0.0000000000000000e+00 0.0000000000000000e+00 0.0000000000000000e+00  0.0000000000000000e+00 0.0000000000000000e+00 0.0000000000000000e+00  0.0000000000000000e+00 0.0000000000000000e+00 0.0000000000000000e+00  0.0000000000000000e+00 0.0000000000000000e+00 0.0000000000000000e+00  0.0000000000000000e+00 0.0000000000000000e+00 0.0000000000000000e+00  0.0000000000000000e+00 0.0000000000000000e+00 0.0000000000000000e+00  0.0000000000000000e+00 0.0000000000000000e+00 0.0000000000000000e+00  0.0000000000000000e+00 0.0000000000000000e+00 0.0000000000000000e+00  0.0000000000000000e+00 0.0000000000000000e+00 0.0000000000000000e+00  0.0000000000000000e+00 0.0000000000000000e+00 0.0000000000000000e+00  0.0000000000000000e+00 0.0000000000000000e+00 0.0000000000000000e+00  0.0000000000000000e+00 0.0000000000000000e+00 0.0000000000000000e+00  0.0000000000000000e+00 0.0000000000000000e+00 0.0000000000000000e+00  0.0000000000000000e+00 0.0000000000000000e+00 0.0000000000000000e+00  0.0000000000000000e+00 0.0000000000000000e+00 0.0000000000000000e+00  0.0000000000000000e+00 0.0000000000000000e+00 0.0000000000000000e+00  0.0000000000000000e+00 0.0000000000000000e+00 0.0000000000000000e+00  0.0000000000000000e+00 0.0000000000000000e+00 0.0000000000000000e+00  0.0000000000000000e+00 0.0000000000000000e+00 0.0000000000000000e+00  0.0000000000000000e+00 0.0000000000000000e+00 0.0000000000000000e+00  0.0000000000000000e+00 0.0000000000000000e+00 0.0000000000000000e+00  0.0000000000000000e+00 0.0000000000000000e+00 0.0000000000000000e+00  0.0000000000000000e+00 0.0000000000000000e+00 0.0000000000000000e+00  0.0000000000000000e+00 0.0000000000000000e+00 0.0000000000000000e+00  0.0000000000000000e+00 0.0000000000000000e+00 0.0000000000000000e+00  0.0000000000000000e+00 0.0000000000000000e+00 0.0000000000000000e+00  0.0000000000000000e+00 0.0000000000000000e+00 0.0000000000000000e+00  0.0000000000000000e+00 0.0000000000000000e+00 0.0000000000000000e+00  0.0000000000000000e+00 0.0000000000000000e+00 0.0000000000000000e+00  0.0000000000000000e+00 0.0000000000000000e+00 0.0000000000000000e+00  0.0000000000000000e+00 0.0000000000000000e+00 0.0000000000000000e+00  0.0000000000000000e+00 0.0000000000000000e+00 0.0000000000000000e+00  0.0000000000000000e+00 0.0000000000000000e+00 0.0000000000000000e+00  0.0000000000000000e+00 0.0000000000000000e+00 0.0000000000000000e+00  0.0000000000000000e+00 0.0000000000000000e+00 0.0000000000000000e+00  0.0000000000000000e+00 0.0000000000000000e+00 0.0000000000000000e+00  0.0000000000000000e+00 0.0000000000000000e+00 0.0000000000000000e+00  0.0000000000000000e+00 0.0000000000000000e+00 0.0000000000000000e+00  0.0000000000000000e+00 0.0000000000000000e+00 0.0000000000000000e+00  0.0000000000000000e+00 0.0000000000000000e+00 0.0000000000000000e+00  0.0000000000000000e+00 0.0000000000000000e+00 0.0000000000000000e+00  0.0000000000000000e+00 0.0000000000000000e+00 0.0000000000000000e+00  0.0000000000000000e+00 0.0000000000000000e+00 0.0000000000000000e+00  0.0000000000000000e+00 0.0000000000000000e+00 0.0000000000000000e+00  0.0000000000000000e+00 0.0000000000000000e+00 0.0000000000000000e+00  0.0000000000000000e+00 0.0000000000000000e+00 0.0000000000000000e+00  0.0000000000000000e+00 0.0000000000000000e+00 0.0000000000000000e+00  0.0000000000000000e+00 0.0000000000000000e+00 0.0000000000000000e+00  0.0000000000000000e+00 0.0000000000000000e+00 0.0000000000000000e+00  0.0000000000000000e+00 0.0000000000000000e+00 0.0000000000000000e+00  0.0000000000000000e+00 0.0000000000000000e+00 0.0000000000000000e+00  0.0000000000000000e+00 0.0000000000000000e+00 0.0000000000000000e+00  0.0000000000000000e+00 0.0000000000000000e+00 0.0000000000000000e+00  0.0000000000000000e+00 0.0000000000000000e+00 0.0000000000000000e+00  0.0000000000000000e+00 0.0000000000000000e+00 0.0000000000000000e+00  0.0000000000000000e+00 0.0000000000000000e+00 0.0000000000000000e+00  0.0000000000000000e+00 0.0000000000000000e+00 0.0000000000000000e+00  0.0000000000000000e+00 0.0000000000000000e+00 0.0000000000000000e+00  0.0000000000000000e+00 0.0000000000000000e+00 0.0000000000000000e+00  0.0000000000000000e+00 0.0000000000000000e+00 0.0000000000000000e+00  0.0000000000000000e+00 0.0000000000000000e+00 0.0000000000000000e+00  0.0000000000000000e+00 0.0000000000000000e+00 0.0000000000000000e+00  0.0000000000000000e+00 0.0000000000000000e+00 0.0000000000000000e+00  0.0000000000000000e+00 0.0000000000000000e+00 0.0000000000000000e+00  0.0000000000000000e+00 0.0000000000000000e+00 0.0000000000000000e+00  0.0000000000000000e+00 0.0000000000000000e+00 0.0000000000000000e+00  0.0000000000000000e+00 0.0000000000000000e+00 0.0000000000000000e+00  0.0000000000000000e+00 0.0000000000000000e+00 0.0000000000000000e+00  0.0000000000000000e+00 0.0000000000000000e+00 0.0000000000000000e+00  0.0000000000000000e+00 0.0000000000000000e+00 0.0000000000000000e+00  0.0000000000000000e+00 0.0000000000000000e+00 0.0000000000000000e+00  0.0000000000000000e+00 0.0000000000000000e+00 0.0000000000000000e+00  0.0000000000000000e+00 0.0000000000000000e+00 0.0000000000000000e+00  0.0000000000000000e+00 0.0000000000000000e+00 0.0000000000000000e+00  0.0000000000000000e+00 0.0000000000000000e+00 0.0000000000000000e+00  0.0000000000000000e+00 0.0000000000000000e+00 0.0000000000000000e+00  0.0000000000000000e+00 0.0000000000000000e+00 0.0000000000000000e+00  0.0000000000000000e+00 0.0000000000000000e+00 0.0000000000000000e+00  0.0000000000000000e+00 0.0000000000000000e+00 0.0000000000000000e+00  0.0000000000000000e+00 0.0000000000000000e+00 0.0000000000000000e+00  0.0000000000000000e+00 0.0000000000000000e+00 0.0000000000000000e+00  0.0000000000000000e+00 0.0000000000000000e+00 0.0000000000000000e+00  0.0000000000000000e+00 0.0000000000000000e+00 0.0000000000000000e+00  0.0000000000000000e+00 0.0000000000000000e+00 0.0000000000000000e+00  0.0000000000000000e+00 0.0000000000000000e+00 0.0000000000000000e+00  0.0000000000000000e+00 0.0000000000000000e+00 0.0000000000000000e+00  0.0000000000000000e+00 0.0000000000000000e+00 0.0000000000000000e+00  0.0000000000000000e+00 0.0000000000000000e+00 0.0000000000000000e+00  0.0000000000000000e+00 0.0000000000000000e+00 0.0000000000000000e+00  0.0000000000000000e+00 0.0000000000000000e+00 0.0000000000000000e+00  0.0000000000000000e+00 0.0000000000000000e+00 0.0000000000000000e+00  0.0000000000000000e+00 0.0000000000000000e+00 0.0000000000000000e+00  0.0000000000000000e+00 0.0000000000000000e+00 0.0000000000000000e+00  0.00