<?xml version="1.0"?>
<VTKFile type="UnstructuredGrid"  version="0.1"  >
<UnstructuredGrid>
<Piece  NumberOfPoints="14844" NumberOfCells="29085">
<Points>
<DataArray  type="Float64"  NumberOfComponents="3"  format="ascii">0 0 0  5 0 0  5 1 0  0 1 0  0 0.65 0  0 0.35 0  0.01999999999998493 0 0  0.03999999999996989 0 0  0.05999999999995592 0 0  0.07999999999994194 0 0  0.09999999999992795 0 0  0.1199999999999136 0 0  0.1399999999998968 0 0  0.1599999999998791 0 0  0.1799999999998568 0 0  0.1999999999998338 0 0  0.2199999999998087 0 0  0.2399999999997852 0 0  0.2599999999997656 0 0  0.279999999999748 0 0  0.299999999999734 0 0  0.31999999999972 0 0  0.339999999999706 0 0  0.3599999999996922 0 0  0.3799999999996782 0 0  0.3999999999996642 0 0  0.4199999999996502 0 0  0.4399999999996362 0 0  0.4599999999996223 0 0  0.4799999999996083 0 0  0.4999999999995943 0 0  0.5199999999995804 0 0  0.5399999999995663 0 0  0.5599999999995524 0 0  0.5799999999995384 0 0  0.5999999999995166 0 0  0.6199999999994916 0 0  0.6399999999994498 0 0  0.6599999999994024 0 0  0.6799999999993465 0 0  0.699999999999288 0 0  0.7199999999992297 0 0  0.7399999999991713 0 0  0.7599999999991129 0 0  0.7799999999990546 0 0  0.7999999999989961 0 0  0.8199999999989377 0 0  0.8399999999988794 0 0  0.859999999998821 0 0  0.8799999999987627 0 0  0.8999999999987042 0 0  0.9199999999986458 0 0  0.9399999999985874 0 0  0.9599999999985291 0 0  0.9799999999984708 0 0  0.9999999999984123 0 0  1.019999999998354 0 0  1.039999999998296 0 0  1.059999999998237 0 0  1.079999999998179 0 0  1.09999999999812 0 0  1.119999999998062 0 0  1.139999999998004 0 0  1.159999999997945 0 0  1.179999999997887 0 0  1.199999999997829 0 0  1.21999999999777 0 0  1.239999999997712 0 0  1.259999999997654 0 0  1.279999999997595 0 0  1.299999999997537 0 0  1.319999999997478 0 0  1.33999999999742 0 0  1.359999999997361 0 0  1.379999999997303 0 0  1.399999999997245 0 0  1.419999999997187 0 0  1.439999999997128 0 0  1.45999999999707 0 0  1.479999999997011 0 0  1.499999999996953 0 0  1.519999999996895 0 0  1.539999999996836 0 0  1.559999999996778 0 0  1.579999999996719 0 0  1.599999999996661 0 0  1.619999999996602 0 0  1.639999999996544 0 0  1.659999999996486 0 0  1.679999999996428 0 0  1.699999999996369 0 0  1.719999999996311 0 0  1.739999999996252 0 0  1.759999999996194 0 0  1.779999999996136 0 0  1.799999999996077 0 0  1.819999999996019 0 0  1.83999999999596 0 0  1.859999999995902 0 0  1.879999999995844 0 0  1.899999999995785 0 0  1.919999999995727 0 0  1.939999999995669 0 0  1.95999999999561 0 0  1.979999999995552 0 0  1.999999999995511 0 0  2.019999999995497 0 0  2.039999999995502 0 0  2.059999999995533 0 0  2.079999999995563 0 0  2.099999999995593 0 0  2.119999999995624 0 0  2.139999999995654 0 0  2.159999999995684 0 0  2.179999999995715 0 0  2.199999999995745 0 0  2.219999999995776 0 0  2.239999999995806 0 0  2.259999999995836 0 0  2.279999999995867 0 0  2.299999999995897 0 0  2.319999999995928 0 0  2.339999999995958 0 0  2.359999999995988 0 0  2.379999999996019 0 0  2.399999999996049 0 0  2.41999999999608 0 0  2.43999999999611 0 0  2.45999999999614 0 0  2.479999999996171 0 0  2.499999999996201 0 0  2.519999999996231 0 0  2.539999999996262 0 0  2.559999999996292 0 0  2.579999999996323 0 0  2.599999999996353 0 0  2.619999999996384 0 0  2.639999999996414 0 0  2.659999999996445 0 0  2.679999999996475 0 0  2.699999999996505 0 0  2.719999999996535 0 0  2.739999999996567 0 0  2.759999999996596 0 0  2.779999999996627 0 0  2.799999999996657 0 0  2.819999999996687 0 0  2.839999999996718 0 0  2.859999999996749 0 0  2.879999999996779 0 0  2.899999999996809 0 0  2.91999999999684 0 0  2.93999999999687 0 0  2.959999999996901 0 0  2.979999999996931 0 0  2.999999999996961 0 0  3.019999999996991 0 0  3.039999999997022 0 0  3.059999999997052 0 0  3.079999999997083 0 0  3.099999999997114 0 0  3.119999999997143 0 0  3.139999999997174 0 0  3.159999999997204 0 0  3.179999999997234 0 0  3.199999999997265 0 0  3.219999999997296 0 0  3.239999999997325 0 0  3.259999999997356 0 0  3.279999999997386 0 0  3.299999999997417 0 0  3.319999999997447 0 0  3.339999999997478 0 0  3.359999999997508 0 0  3.379999999997538 0 0  3.399999999997569 0 0  3.419999999997599 0 0  3.43999999999763 0 0  3.45999999999766 0 0  3.47999999999769 0 0  3.49999999999772 0 0  3.519999999997751 0 0  3.539999999997781 0 0  3.559999999997812 0 0  3.579999999997842 0 0  3.599999999997872 0 0  3.619999999997903 0 0  3.639999999997933 0 0  3.659999999997964 0 0  3.679999999997994 0 0  3.699999999998025 0 0  3.719999999998055 0 0  3.739999999998085 0 0  3.759999999998116 0 0  3.779999999998147 0 0  3.799999999998176 0 0  3.819999999998207 0 0  3.839999999998238 0 0  3.859999999998267 0 0  3.879999999998298 0 0  3.899999999998329 0 0  3.919999999998359 0 0  3.939999999998389 0 0  3.95999999999842 0 0  3.97999999999845 0 0  3.99999999999848 0 0  4.019999999998511 0 0  4.039999999998542 0 0  4.059999999998571 0 0  4.079999999998602 0 0  4.099999999998633 0 0  4.119999999998663 0 0  4.139999999998693 0 0  4.159999999998724 0 0  4.179999999998754 0 0  4.199999999998784 0 0  4.219999999998815 0 0  4.239999999998845 0 0  4.259999999998875 0 0  4.279999999998906 0 0  4.299999999998937 0 0  4.319999999998966 0 0  4.339999999998997 0 0  4.359999999999028 0 0  4.379999999999058 0 0  4.399999999999088 0 0  4.419999999999119 0 0  4.439999999999149 0 0  4.459999999999179 0 0  4.47999999999921 0 0  4.49999999999924 0 0  4.51999999999927 0 0  4.539999999999301 0 0  4.559999999999331 0 0  4.579999999999361 0 0  4.599999999999392 0 0  4.619999999999423 0 0  4.639999999999453 0 0  4.659999999999483 0 0  4.679999999999513 0 0  4.699999999999544 0 0  4.719999999999574 0 0  4.739999999999605 0 0  4.759999999999635 0 0  4.779999999999665 0 0  4.799999999999695 0 0  4.819999999999726 0 0  4.839999999999756 0 0  4.859999999999787 0 0  4.879999999999818 0 0  4.899999999999848 0 0  4.919999999999878 0 0  4.939999999999908 0 0  4.95999999999994 0 0  4.979999999999969 0 0  5 0.01999999999996237 0  5 0.03999999999992186 0  5 0.05999999999987837 0  5 0.07999999999984518 0  5 0.09999999999981463 0  5 0.1199999999997832 0  5 0.1399999999997328 0  5 0.1599999999996745 0  5 0.1799999999996162 0  5 0.1999999999995579 0  5 0.2199999999994996 0  5 0.2399999999994413 0  5 0.259999999999383 0  5 0.2799999999993247 0  5 0.2999999999992664 0  5 0.3199999999992081 0  5 0.3399999999991498 0  5 0.3599999999990915 0  5 0.3799999999990332 0  5 0.3999999999989749 0  5 0.4199999999989167 0  5 0.4399999999988584 0  5 0.4599999999988 0  5 0.4799999999987418 0  5 0.4999999999986943 0  5 0.5199999999987361 0  5 0.5399999999987888 0  5 0.5599999999988415 0  5 0.5799999999988942 0  5 0.5999999999989468 0  5 0.6199999999989995 0  5 0.6399999999990521 0  5 0.6599999999991049 0  5 0.6799999999991574 0  5 0.6999999999992101 0  5 0.7199999999992628 0  5 0.7399999999993154 0  5 0.7599999999993681 0  5 0.7799999999994207 0  5 0.7999999999994734 0  5 0.8199999999995261 0  5 0.8399999999995788 0  5 0.8599999999996314 0  5 0.8799999999996841 0  5 0.8999999999997367 0  5 0.9199999999997894 0  5 0.939999999999842 0  5 0.9599999999998947 0  5 0.9799999999999475 0  4.98 1 0  4.96 1 0  4.94 1 0  4.92 1 0  4.899999999999999 1 0  4.88 1 0  4.859999999999999 1 0  4.84 1 0  4.819999999999999 1 0  4.8 1 0  4.779999999999999 1 0  4.76 1 0  4.739999999999999 1 0  4.72 1 0  4.699999999999999 1 0  4.68 1 0  4.659999999999999 1 0  4.64 1 0  4.619999999999999 1 0  4.6 1 0  4.579999999999999 1 0  4.56 1 0  4.539999999999999 1 0  4.52 1 0  4.499999999999999 1 0  4.48 1 0  4.459999999999999 1 0  4.44 1 0  4.419999999999999 1 0  4.399999999999999 1 0  4.379999999999999 1 0  4.359999999999999 1 0  4.339999999999999 1 0  4.319999999999999 1 0  4.299999999999999 1 0  4.279999999999999 1 0  4.259999999999999 1 0  4.239999999999998 1 0  4.219999999999999 1 0  4.199999999999998 1 0  4.179999999999999 1 0  4.159999999999998 1 0  4.139999999999999 1 0  4.119999999999998 1 0  4.099999999999999 1 0  4.079999999999998 1 0  4.059999999999999 1 0  4.039999999999998 1 0  4.019999999999998 1 0  3.999999999999998 1 0  3.979999999999998 1 0  3.959999999999998 1 0  3.939999999999998 1 0  3.919999999999998 1 0  3.899999999999998 1 0  3.879999999999998 1 0  3.859999999999998 1 0  3.839999999999998 1 0  3.819999999999998 1 0  3.799999999999998 1 0  3.779999999999998 1 0  3.759999999999998 1 0  3.739999999999998 1 0  3.719999999999998 1 0  3.699999999999998 1 0  3.679999999999998 1 0  3.659999999999997 1 0  3.639999999999998 1 0  3.619999999999997 1 0  3.599999999999997 1 0  3.579999999999997 1 0  3.559999999999998 1 0  3.539999999999997 1 0  3.519999999999998 1 0  3.499999999999998 1 0  3.479999999999998 1 0  3.459999999999998 1 0  3.439999999999998 1 0  3.419999999999997 1 0  3.399999999999998 1 0  3.379999999999998 1 0  3.359999999999998 1 0  3.339999999999998 1 0  3.319999999999998 1 0  3.299999999999998 1 0  3.279999999999998 1 0  3.259999999999998 1 0  3.239999999999998 1 0  3.219999999999998 1 0  3.199999999999998 1 0  3.179999999999998 1 0  3.159999999999998 1 0  3.139999999999998 1 0  3.119999999999998 1 0  3.099999999999998 1 0  3.079999999999998 1 0  3.059999999999998 1 0  3.039999999999998 1 0  3.019999999999998 1 0  2.999999999999998 1 0  2.979999999999998 1 0  2.959999999999998 1 0  2.939999999999998 1 0  2.919999999999998 1 0  2.899999999999998 1 0  2.879999999999998 1 0  2.859999999999998 1 0  2.839999999999998 1 0  2.819999999999998 1 0  2.799999999999998 1 0  2.779999999999998 1 0  2.759999999999998 1 0  2.739999999999998 1 0  2.719999999999998 1 0  2.699999999999998 1 0  2.679999999999998 1 0  2.659999999999998 1 0  2.639999999999998 1 0  2.619999999999998 1 0  2.599999999999998 1 0  2.579999999999998 1 0  2.559999999999998 1 0  2.539999999999998 1 0  2.519999999999998 1 0  2.499999999999998 1 0  2.479999999999998 1 0  2.459999999999998 1 0  2.439999999999998 1 0  2.419999999999998 1 0  2.399999999999999 1 0  2.379999999999999 1 0
[...]
<PointData  Scalars="Pressure"> 
<DataArray  type="Float64"  Name="Pressure"  format="ascii">-4.4696639006757468e+03  0.0000000000000000e+00  0.0000000000000000e+00  -4.5436232228592380e+03  -2.5673745919384141e+03  -2.6647295632366058e+04  -4.4764564232575221e+03  -4.5060888081962694e+03  -4.5350744142709991e+03  -4.5550477202630082e+03  -4.5628578221190037e+03  -4.5581717942074856e+03  -4.5414820278484631e+03  -4.5138124525641515e+03  -4.4757720307707787e+03  -4.4278912267055312e+03  -4.3704857893384751e+03  -4.3038858384341693e+03  -4.2282343346831576e+03  -4.1439651929836982e+03  -4.0512696137804442e+03  -3.9508122757433234e+03  -3.8429446216288679e+03  -3.7281409419879506e+03  -3.6070199948784384e+03  -3.4802533029814767e+03  -3.3484725519506378e+03  -3.2123532788900061e+03  -3.0723600981370682e+03  -2.9292043425340999e+03  -2.7834492885839923e+03  -2.6356020521370597e+03  -2.4862352234196869e+03  -2.3358274035537620e+03  -2.1848397365667452e+03  -2.0337053561629525e+03  -1.8828205420272982e+03  -1.7325531138169690e+03  -1.5832417798917136e+03  -1.4351893104692942e+03  -1.2886876531759106e+03  -1.1439877697187619e+03  -1.0013231651822314e+03  -8.6087711531022615e+02  -7.2287820893448941e+02  -5.8749769929766990e+02  -4.5483916466337246e+02  -3.2508248313157179e+02  -1.9832369933943900e+02  -7.4674534447760990e+01  4.5785538809065152e+01  1.6296722772434802e+02  2.7681590509610635e+02  3.8724998678457212e+02  4.9427360938964352e+02  5.9779258726660703e+02  6.9784034611370191e+02  7.9437073224848530e+02  8.8740781741996091e+02  9.7692557367006361e+02  1.0629265033759584e+03  1.1454705033255818e+03  1.2245242586140646e+03  1.3001659751793738e+03  1.3724161545703562e+03  1.4413311313193221e+03  1.5069327350087128e+03  1.5692826708931175e+03  1.6284588148006164e+03  1.6844836189825082e+03  1.7374683377969900e+03  1.7874344622397746e+03  1.8344991317918748e+03  1.8786916100681353e+03  1.9201317336374279e+03  1.9588554354588844e+03  1.9949659680889545e+03  2.0285509420698008e+03  2.0596629074156335e+03  2.0883942360165361e+03  2.1148597535362624e+03  2.1391084653225239e+03  2.1612256758954904e+03  2.1813007399165053e+03  2.1994057076754912e+03  2.2156263988876199e+03  2.2300351764006609e+03  2.2427145190625538e+03  2.2537343635644315e+03  2.2631740199539390e+03  2.2711000838875898e+03  2.2775842892933924e+03  2.2827134508114841e+03  2.2865205874150647e+03  2.2891012460927300e+03  2.2904855670195439e+03  2.2907464625540724e+03  2.2899712842602785e+03  2.2881778532533399e+03  2.2854508852421854e+03  2.2818028891292165e+03  2.2773161527231132e+03  2.2720337225460489e+03  2.2659967527911908e+03  2.2592476717590698e+03  2.2518317470022530e+03  2.2437870884530207e+03  2.2351488297023857e+03  2.2259674757896141e+03  2.2162584692122591e+03  2.2060604366066109e+03  2.1954236520054251e+03  2.1843465257595676e+03  2.1728772065134449e+03  2.1610284545152135e+03  2.1488339329766823e+03  2.1363244827427416e+03  2.1235001659596287e+03  2.1104082125895529e+03  2.0970440632184295e+03  2.0834504778255491e+03  2.0696224085692334e+03  2.0555935825700062e+03  2.0413726096819746e+03  2.0269612191664291e+03  2.0124141776331130e+03  1.9976966679551631e+03  1.9828488713921352e+03  1.9678692501974501e+03  1.9527752393641640e+03  1.9375783351581188e+03  1.9222836077371771e+03  1.9068983628588942e+03  1.8914365404758892e+03  1.8759002897797982e+03  1.8602971970997667e+03  1.8446394596986449e+03  1.8289251765989370e+03  1.8131611308847066e+03  1.7973669456992611e+03  1.7815232991597493e+03  1.7656512606857179e+03  1.7497504178998909e+03  1.7338251718262509e+03  1.7178788463987908e+03  1.7019150066639168e+03  1.6859353073916477e+03  1.6699461074202279e+03  1.6539448004258620e+03  1.6379387992896347e+03  1.6219256130885003e+03  1.6059115152590180e+03  1.5898945074747162e+03  1.5738794598849622e+03  1.5578655152469880e+03  1.5418551795727972e+03  1.5258496304414755e+03  1.5098497441388938e+03  1.4938564567639510e+03  1.4778711288920488e+03  1.4618937819674115e+03  1.4459262726047102e+03  1.4299677233807956e+03  1.4140207343662589e+03  1.3980833151191810e+03  1.3821579831232063e+03  1.3662442800360777e+03  1.3503427362796017e+03  1.3344541439593147e+03  1.3185770823217497e+03  1.3027137470159266e+03  1.2868626723145749e+03  1.2710253349490958e+03  1.2552005835400935e+03  1.2393897316231892e+03  1.2235915502851230e+03  1.2078073450038644e+03  1.1920358317875141e+03  1.1762782993004075e+03  1.1605333660099593e+03  1.1448022826855456e+03  1.1290840136088650e+03  1.1133785262892288e+03  1.0976874994815896e+03  1.0820075478603430e+03  1.0663413523223480e+03  1.0506872994432520e+03  1.0350464933425035e+03  1.0194176678747730e+03  1.0038013991065867e+03  9.8819758962961555e+02  9.7260503216662516e+02  9.5702504657127736e+02  9.4145679608646992e+02  9.2590031319728018e+02  9.1035516490646330e+02  8.9482155918058686e+02  8.7929945640389485e+02  8.6378756808511093e+02  8.4828730485606832e+02  8.3279776722334691e+02  8.1731903235744915e+02  8.0185060200001897e+02  7.8639275925812058e+02  7.7094542789499701e+02  7.5550709935341331e+02  7.4007967280611149e+02  7.2466266480264562e+02  7.0925382054946294e+02  6.9385518343927004e+02  6.7846639586222648e+02  6.6308624372590316e+02  6.4771532100295610e+02  6.3235382894590737e+02  6.1699964213813166e+02  6.0165543248748349e+02  5.8631879646640766e+02  5.7099120809329361e+02  5.5567105482202248e+02  5.4035881066098955e+02  5.2505449247403942e+02  5.0975689021611907e+02  4.9446645296787943e+02  4.7918335805652310e+02  4.6390683159495893e+02  4.4863589058464089e+02  4.3337131203061210e+02  4.1811269681459981e+02  4.0285883320077863e+02  3.8760972951250795e+02  3.7236486816221390e+02  3.5712368388763059e+02  3.4188573724178042e+02  3.2665042816863570e+02  3.1141652503589552e+02  2.9618377175025228e+02  2.8095310831971199e+02  2.6572216535481590e+02  2.5049180079595556e+02  2.3526251654647248e+02  2.2003414242813028e+02  2.0480692221708156e+02  1.8958315845760308e+02  1.7436652507679699e+02  1.5916439469032082e+02  1.4398264597069820e+02  1.2883664976479781e+02  1.1373899514000233e+02  9.8716690634910137e+01  8.3798029367662636e+01  6.9003355508604301e+01  5.4409685429749068e+01  4.0017120979193407e+01  2.5148330721804680e+01  1.3386663390352551e+01  0.0000000000000000e+00  0.0000000000000000e+00  0.0000000000000000e+00  0.0000000000000000e+00  0.0000000000000000e+00  0.0000000000000000e+00  0.0000000000000000e+00  0.0000000000000000e+00  0.0000000000000000e+00  0.0000000000000000e+00  0.0000000000000000e+00  0.0000000000000000e+00  0.0000000000000000e+00  0.0000000000000000e+00  0.0000000000000000e+00  0.0000000000000000e+00  0.0000000000000000e+00  0.0000000000000000e+00  0.0000000000000000e+00  0.0000000000000000e+00  0.0000000000000000e+00  0.0000000000000000e+00  0.0000000000000000e+00  0.0000000000000000e+00  0.0000000000000000e+00  0.0000000000000000e+00  0.0000000000000000e+00  0.0000000000000000e+00  0.0000000000000000e+00  0.0000000000000000e+00  0.0000000000000000e+00  0.0000000000000000e+00  0.0000000000000000e+00  0.0000000000000000e+00  0.0000000000000000e+00  0.0000000000000000e+00  0.0000000000000000e+00  0.0000000000000000e+00  0.0000000000000000e+00  0.0000000000000000e+00  0.0000000000000000e+00  0.0000000000000000e+00  0.0000000000000000e+00  0.0000000000000000e+00  0.0000000000000000e+00  0.0000000000000000e+00  0.0000000000000000e+00  0.0000000000000000e+00  0.0000000000000000e+00  1.3300720399627455e+01  2.5209637061505315e+01  4.0360766046030207e+01  5.4629162036959016e+01  6.9124680237913125e+01  8.3955556742631245e+01  9.8867537094245364e+01  1.1392829711470679e+02  1.2904286300459901e+02  1.4420051093229779e+02  1.5939837440861214e+02  1.7461928645818634e+02  1.8984836031809391e+02  2.0508468972060550e+02  2.2032498687379874e+02  2.3556460970879672e+02  2.5080404407965170e+02  2.6604180471500052e+02  2.8128146615108898e+02  2.9651797808643460e+02  3.1175519169558532e+02  3.2699224751310987e+02  3.4222981958127201e+02  3.5746813993784036e+02  3.7270773553723564e+02  3.8794907573891840e+02  4.0319301525545933e+02  4.1843851678813235e+02  4.3368710047090002e+02  4.4893868038291652e+02  4.6419275895953734e+02  4.7945083935588519e+02  4.9471125866418600e+02  5.0997621039042065e+02  5.2524348201250598e+02  5.4051440171297759e+02  5.5578959706866567e+02  5.7106720616330563e+02  5.8634801832771677e+02  6.0163215604006677e+02  6.1692001129108758e+02  6.3220964283798878e+02  6.4750230930647831e+02  6.6279786894176243e+02  6.7809544581379600e+02  6.9339446366954439e+02  7.0869628680512449e+02  7.2399862526342849e+02  7.3930250363018342e+02  7.5460693222191480e+02  7.6991159375129871e+02  7.8521734853938619e+02  8.0052145387733458e+02  8.1582623749870856e+02  8.3112853397456070e+02  8.4642962240877364e+02  8.6172843052874873e+02  8.7702434716411233e+02  8.9231759204151331e+02  9.0760620903474614e+02  9.2289068208487902e+02  9.3817051024268244e+02  9.5344373410161245e+02  9.6871089737926434e+02  9.8397136522137419e+02  9.9922293941631290e+02  1.0144662523937001e+03  1.0297005021340394e+03  1.0449230867712643e+03  1.0601347745604714e+03  1.0753350808463404e+03  1.0905217426539036e+03  1.1056938612508429e+03  1.1208509366144247e+03  1.1359914271631815e+03  1.1511145609438265e+03  1.1662198455883245e+03  1.1813039530770482e+03  1.1963676958393555e+03  1.2114073248996585e+03  1.2264300706476060e+03  1.2414174299701244e+03  1.2563885643530934e+03  1.2713208488822561e+03  1.2862342491920738e+03  1.3011053591830480e+03  1.3159545240434697e+03  1.3307577921617042e+03  1.3455358576714616e+03  1.3602641975021063e+03  1.3749637974731804e+03  1.3896088950218548e+03  1.4042221888744718e+03  1.4187805252701123e+03  1.4332865761044297e+03  1.4477566104249497e+03  1.4621627327833257e+03  1.4765096378720182e+03  1.4908139265846360e+03  1.5050435361118809e+03  1.5192230604727727e+03  1.5333242772117669e+03  1.5473706584260751e+03  1.5613328150303512e+03  1.5752347410296684e+03  1.5890470048544105e+03  1.6027933243221137e+03  1.6164432288602602e+03  1.6300226901679644e+03  1.6435017930257654e+03  1.6568811261314727e+03  1.6701900933708800e+03  1.6833782214492862e+03  1.6964663506828583e+03  1.7094528173221981e+03  1.7223271316802086e+03  1.7350904549049326e+03  1.7477268476076574e+03  1.7602681616625382e+03  1.7726607149979575e+03  1.7849174990140873e+03  1.7970721810043983e+03  1.8090637005826479e+03  1.8209068879494287e+03  1.8326371453150055e+03  1.8441846197009818e+03  1.8555815593662933e+03  1.8668243881307928e+03  1.8778963839798112e+03  1.8888045339679202e+03  1.8995303537757052e+03  1.9100831034100504e+03  1.9204427566461241e+03  1.9306193013995687e+03  1.9405912669498871e+03  1.9503698241140432e+03  1.9599336349187620e+03  1.9692909705034681e+03  1.9784152429120393e+03  1.9873582193254831e+03  1.9960232863077663e+03  2.0044585331821504e+03  2.0126582763283950e+03  2.0205981860525571e+03  2.0282896107334889e+03  2.0357039589715928e+03  2.0428560856075087e+03  2.0497156290266512e+03  2.0562972212809573e+03  2.0625791573966335e+03  2.0685627347850486e+03  2.0741633763424015e+03  2.0794836947076892e+03  2.0844692278399216e+03  2.0890875175104652e+03  2.0933460222524714e+03  2.0972263805060820e+03  2.1007182195033342e+03  2.1038037534143596e+03  2.1064705430276776e+03  2.1086979085988946e+03  2.1104727442994345e+03  2.1117686837897477e+03  2.1125733721291490e+03  2.1128549853367053e+03  2.1125987453374187e+03  2.1117685154517221e+03  2.1103456247777449e+03  2.1082904525316803e+03  2.1055771395752358e+03  2.1021562075150273e+03  2.0980140641506378e+03  2.0930828932816298e+03  2.0873198851140446e+03  2.0806924531676987e+03  2.0731484626242764e+03  2.0645948350971598e+03  2.0550029916674348e+03  2.0442857899902822e+03  2.0324004719237635e+03  2.0192301652809381e+03  2.0047157705603026e+03  1.9887526381328071e+03  1.9712508614980561e+03  1.9521116748142099e+03  1.9312106384505726e+03  1.9084479624391158e+03  1.8836783809122337e+03  1.8567737252231254e+03  1.8276005407294119e+03  1.7959896111026303e+03  1.7618049021588236e+03  1.7248590269388071e+03  1.6849900501324566e+03  1.6420021017580175e+03  1.5957202061742726e+03  1.5459319999818581e+03  1.4924307217110784e+03  1.4350052144207173e+03  1.3734735747056488e+03  1.3075883064479322e+03  1.2370995229054704e+03  1.1618364205637331e+03  1.0815345062535769e+03  9.9599327970360901e+02  9.0498946533918672e+02  8.0833635111793262e+02  7.0582911320248718e+02  5.9729355413326243e+02  4.8257099199268407e+02  3.6152820450198027e+02  2.3406031595118876e+02  1.0009762731031503e+02  -4.0389288578620032e+01  -1.8738403498229908e+02  -3.4081523744356400e+02  -5.0055324572489980e+02  -6.6640017790208128e+02  -8.3808405495167176e+02  -1.0152575771235441e+03  -1.1974693397881947e+03  -1.3841990833302061e+03  -1.5748127308277099e+03  -1.7685460937732730e+03  -1.9646055398377248e+03  -2.1620602759813569e+03  -2.3598094274423961e+03  -2.5567663397894949e+03  -2.7517029444739374e+03  -2.9433294370906942e+03  -3.1303530950087388e+03  -3.3114434772880932e+03  -3.4851817088789790e+03  -3.6503002680142881e+03  -3.8054851857565545e+03  -3.9497127742821822e+03  -4.0818865676404894e+03  -4.2013124323450356e+03  -4.3072537223296431e+03  -4.3993136135805689e+03  -4.4770760932349267e+03  -4.5403374805742187e+03  -4.5886645995048366e+03  -4.6215507351977212e+03  -4.6381792337285206e+03  -4.6377524528173808e+03  -4.6204453016739726e+03  -4.5891023130456624e+03  -4.5532822474006916e+03  -4.5341533395942943e+03  -4.4980310560473499e+03  -4.4657886541569706e+03  -4.4464267376639818e+03  -4.4517029576506256e+03  -4.4853674176990962e+03  -4.5508632366761449e+03  -4.6532916664344302e+03  -4.7964410535253610e+03  -4.9864089319950608e+03  -5.2285187920148401e+03  -5.5619953840909329e+03  -5.9816449465197247e+03  -6.6965316413192013e+03  -8.0273882763553356e+03  -7.7124767966991558e+03  -3.0112422599530961e+04  -3.6790413288223931e+03  -5.0539185509390600e+03  -4.9545194223035169e+03  -4.8911125273905591e+03  -4.8330593540159689e+03  -4.7799937678437018e+03  -4.7430281561242127e+03  -4.7215661685400200e+03  -4.7104008647613337e+03  -4.7278360936241543e+03  -4.7372749987802854e+03  -4.4477311354335980e+03  -6.7355121672972909e+03  6.2510990053325750e+03  -1.3007957144456397e+04  -8.1911370321465774e+03  -6.8853037957995339e+03  -6.0183640182146028e+03  -5.5232847069056606e+03  -5.1804500443151237e+03  -4.9279532952491172e+03  -4.7421907281529484e+03  -4.6002994967721042e+03  -4.4973599533019169e+03  -4.4280524706942715e+03  -4.3884822498956237e+03  -4.3740302825663211e+03  -4.3799638345338390e+03  -4.4030978421888076e+03  -4.4333440774321016e+03  -4.4630809363303770e+03  -1.3718926087023845e+03  -2.8223619156929015e+01  7.3193660431784087e+02  1.8454898003780024e+03  1.3227848649496223e+03  2.1409730899656870e+03  2.2600888321468601e+03  2.2818632344149000e+03  2.2442168179665223e+03  -2.5637283312586783e+03  3.8040815098888896e+02  4.8717587706415640e+02  5.9226753711923993e+02  8.0644158728938316e+02  9.8985913318721248e+02  6.9931890145609873e+02  1.2039359165895842e+03  1.0963588853533888e+03  1.4262544043888931e+03  1.3242770622238679e+03  1.6509089204518743e+03  1.5270871650473291e+03  1.9738781535446872e+03  1.7420315930630422e+03  1.8926282248933828e+03  1.9136523575833405e+03  9.0273313671422454e+02  4.0052113769679949e+02  2.1080114893852647e+03  2.0436710902958514e+03  1.8869963411135525e+03  2.0305939595081832e+03  -9.4755482117342206e+02  2.1040693048858675e+03  1.6297889602278349e+03  1.2790511794155091e+03  2.0749020694717269e+03  2.0811638328761292e+03  1.6055511236503175e+03  1.1789258225244134e+03  2.1644716682389617e+03  1.7573404295465371e+03  1.5018454825492599e+03  1.3900040153178604e+03  1.1528002768158403e+03  1.0430103858851242e+03  7.4792833841648940e+02  6.4016445183760140e+02  5.3282604727980208e+02  4.2584536926592131e+02  -4.7300284344698803e+03  1.3271182496330422e+01  -2.2797559424086867e+03  3.3434599286114133e+02  8.9822906476089372e+02  1.8155302598152161e+03  -3.4075167092219062e+03  1.3956489945356950e+01  -5.1725989592297929e+03  2.8894680650318065e+02  -5.7681106514316334e+03  1.3321960892834385e+01  -3.3936204608246831e+03  2.4289676926454172e+02  -3.9850030222201431e+03  1.8360819200361334e+03  2.0031893185487504e+03  -6.6736272137780111e+02  8.2520075116488249e+02  1.3618351325219267e+01  -6.9625764478670626e+03  2.1267752246768902e+02  -6.4918361998335149e+03  1.3562194852397973e+01  -4.1178636606171194e+03  1.6568347994074685e+02  -4.3698869313896694e+03  -1.9653133949283774e+03  1.2647990457469757e+03  8.3708314737466355e+02  -1.3629578437228776e+02  1.3040399613796781e+01  1.5658053760777116e+03  9.6495791331207010e+02  1.9341064692253267e+03  1.5829156568295919e+03  2.1105922685032306e+03  2.0860143833353422e+03  1.9721908562995677e+03  2.0978272472256626e+03  1.6936854134184532e+03  1.7678574462920076e+03  2.0580466606023992e+03  2.2081883700267854e+03  1.2158217625847683e+03  2.0011536774869462e+03  1.6444453875268564e+03  2.2817472092240164e+03  2.2147293433822283e+03  1.5173061271112059e+02  -5.2040690371445780e+03  -4.9291800904780948e+03  1.3136648355876726e+01  -4.4722777098963206e+03  1.0519765140346171e+02  -4.5149039211954987e+03  1.2884103311330925e+01  -4.5858932703348346e+03  9.2268741181746336e+01  -4.4645149916068667e+03  -4.8612991419461305e+03  -4.7042320992004798e+03  -1.6961656812772410e+03  6.3995663787667900e+02  4.7165230856148435e+02  1.4211959499876194e+01  7.4522982477836115e+02  1.9988518702147937e+03  -2.9993069241957301e+03  7.0168617410246577e+02  1.4539376649193525e+03  2.8845197458156747e+02  4.2615085089777011e+02  1.1056721844526844e+03  1.4695396373712022e+03  -2.8522548482204643e+03  1.3424844320149389e+03  1.1569159230040411e+03  1.0355712088436990e+03  3.8008012990424254e+02  3.3467767906655121e+02  1.3839672453318899e+03  5.3297704960630494e+02  1.9592077120966960e+03  1.7793772710600485e+03  1.8483295155645994e+03  2.2703559199712208e+03  1.6882448308862242e+03  2.1278591806025806e+03  9.4407168607666813e+02  8.5234876074024851e+02  5.9410952359483360e+02  1.3831808702614719e+03  3.1842074933462453e+02  1.0064692107869209e+03  1.4429252713851174e+01  1.3850956567371588e+01  -4.5884515763603622e+03  5.9906375990279365e+01  -4.5168627389287985e+03  1.4204431653684122e+01  -4.4974829481231627e+03  1.4003647744166820e+01  4.1731943283457440e+01  -4.4219383719026246e+03  -1.2103365039207210e+04  -1.1353340644128019e+04  -4.5949880952686626e+03  -4.4617986264738556e+03  -4.2411522325623364e+03  -3.8638042993508147e+03  -4.3235799312942945e+03  2.2273024166562495e+03  2.1872010137320235e+03  1.4220417876157057e+03  1.1842849923279309e+03  -2.2654524864676864e+03  6.7090902227477238e+02  2.1184131771745240e+02  6.6872133902709697e+02  1.3538081386757597e+03  1.7890136874041054e+03  1.0743144115949342e+03  1.5978001893350181e+03  1.2946027663320301e+03  1.3847331278940834e+01  -3.6707572132024097e+03  1.2574542902063383e+01  1.0117541072428980e+03  1.8674508478340520e+03  -1.6665422712835150e+03  1.6617566964104255e+03  8.5617797594620527e+02  6.3091259999997555e+02  1.3518804780459863e+01  -4.4292430975665150e+02  -1.3137178604721257e+03  1.0195097937029922e+03  1.6103727358486547e+03  1.4493226355042293e+02  2.0469288691422569e+03  4.5665764696074433e+02  2.0902474507828156e+03  2.1085813087574043e+03  2.0967801653374804e+03  9.3382388904944128e+02  2.0152135010804975e+03  1.1266711003497528e+03  1.9536721000557466e+03  2.0448921916294566e+03  1.8323127083030508e+03  1.7255554727466720e+03  2.0050879344103432e+03  1.9328169273744711e+03  1.9288867577456376e+03  2.0699765243239531e+03  2.0639697823733895e+03  2.1037917548907967e+03  1.0659875528635459e+03  1.6929036393192157e+03  1.5045221283088490e+03  2.0918912146886646e+03  2.2736075040834794e+03  2.2406567095227210e+03  2.4130738322235194e+02  2.1103355043162733e+03  2.2849969824522004e+03  2.1018916574155742e+03  7.9426241127247920e+02  1.5256769011500567e+03  -1.0839754563799167e+03  -4