<?xml version="1.0"?>
<VTKFile type="UnstructuredGrid"  version="0.1"  >
<UnstructuredGrid>
<Piece  NumberOfPoints="14844" NumberOfCells="29085">
<Points>
<DataArray  type="Float64"  NumberOfComponents="3"  format="ascii">0 0 0  5 0 0  5 1 0  0 1 0  0 0.65 0  0 0.35 0  0.01999999999998493 0 0  0.03999999999996989 0 0  0.05999999999995592 0 0  0.07999999999994194 0 0  0.09999999999992795 0 0  0.1199999999999136 0 0  0.1399999999998968 0 0  0.1599999999998791 0 0  0.1799999999998568 0 0  0.1999999999998338 0 0  0.2199999999998087 0 0  0.2399999999997852 0 0  0.2599999999997656 0 0  0.279999999999748 0 0  0.299999999999734 0 0  0.31999999999972 0 0  0.339999999999706 0 0  0.3599999999996922 0 0  0.3799999999996782 0 0  0.3999999999996642 0 0  0.4199999999996502 0 0  0.4399999999996362 0 0  0.4599999999996223 0 0  0.4799999999996083 0 0  0.4999999999995943 0 0  0.5199999999995804 0 0  0.5399999999995663 0 0  0.5599999999995524 0 0  0.5799999999995384 0 0  0.5999999999995166 0 0  0.6199999999994916 0 0  0.6399999999994498 0 0  0.6599999999994024 0 0  0.6799999999993465 0 0  0.699999999999288 0 0  0.7199999999992297 0 0  0.7399999999991713 0 0  0.7599999999991129 0 0  0.7799999999990546 0 0  0.7999999999989961 0 0  0.8199999999989377 0 0  0.8399999999988794 0 0  0.859999999998821 0 0  0.8799999999987627 0 0  0.8999999999987042 0 0  0.9199999999986458 0 0  0.9399999999985874 0 0  0.9599999999985291 0 0  0.9799999999984708 0 0  0.9999999999984123 0 0  1.019999999998354 0 0  1.039999999998296 0 0  1.059999999998237 0 0  1.079999999998179 0 0  1.09999999999812 0 0  1.119999999998062 0 0  1.139999999998004 0 0  1.159999999997945 0 0  1.179999999997887 0 0  1.199999999997829 0 0  1.21999999999777 0 0  1.239999999997712 0 0  1.259999999997654 0 0  1.279999999997595 0 0  1.299999999997537 0 0  1.319999999997478 0 0  1.33999999999742 0 0  1.359999999997361 0 0  1.379999999997303 0 0  1.399999999997245 0 0  1.419999999997187 0 0  1.439999999997128 0 0  1.45999999999707 0 0  1.479999999997011 0 0  1.499999999996953 0 0  1.519999999996895 0 0  1.539999999996836 0 0  1.559999999996778 0 0  1.579999999996719 0 0  1.599999999996661 0 0  1.619999999996602 0 0  1.639999999996544 0 0  1.659999999996486 0 0  1.679999999996428 0 0  1.699999999996369 0 0  1.719999999996311 0 0  1.739999999996252 0 0  1.759999999996194 0 0  1.779999999996136 0 0  1.799999999996077 0 0  1.819999999996019 0 0  1.83999999999596 0 0  1.859999999995902 0 0  1.879999999995844 0 0  1.899999999995785 0 0  1.919999999995727 0 0  1.939999999995669 0 0  1.95999999999561 0 0  1.979999999995552 0 0  1.999999999995511 0 0  2.019999999995497 0 0  2.039999999995502 0 0  2.059999999995533 0 0  2.079999999995563 0 0  2.099999999995593 0 0  2.119999999995624 0 0  2.139999999995654 0 0  2.159999999995684 0 0  2.179999999995715 0 0  2.199999999995745 0 0  2.219999999995776 0 0  2.239999999995806 0 0  2.259999999995836 0 0  2.279999999995867 0 0  2.299999999995897 0 0  2.319999999995928 0 0  2.339999999995958 0 0  2.359999999995988 0 0  2.379999999996019 0 0  2.399999999996049 0 0  2.41999999999608 0 0  2.43999999999611 0 0  2.45999999999614 0 0  2.479999999996171 0 0  2.499999999996201 0 0  2.519999999996231 0 0  2.539999999996262 0 0  2.559999999996292 0 0  2.579999999996323 0 0  2.599999999996353 0 0  2.619999999996384 0 0  2.639999999996414 0 0  2.659999999996445 0 0  2.679999999996475 0 0  2.699999999996505 0 0  2.719999999996535 0 0  2.739999999996567 0 0  2.759999999996596 0 0  2.779999999996627 0 0  2.799999999996657 0 0  2.819999999996687 0 0  2.839999999996718 0 0  2.859999999996749 0 0  2.879999999996779 0 0  2.899999999996809 0 0  2.91999999999684 0 0  2.93999999999687 0 0  2.959999999996901 0 0  2.979999999996931 0 0  2.999999999996961 0 0  3.019999999996991 0 0  3.039999999997022 0 0  3.059999999997052 0 0  3.079999999997083 0 0  3.099999999997114 0 0  3.119999999997143 0 0  3.139999999997174 0 0  3.159999999997204 0 0  3.179999999997234 0 0  3.199999999997265 0 0  3.219999999997296 0 0  3.239999999997325 0 0  3.259999999997356 0 0  3.279999999997386 0 0  3.299999999997417 0 0  3.319999999997447 0 0  3.339999999997478 0 0  3.359999999997508 0 0  3.379999999997538 0 0  3.399999999997569 0 0  3.419999999997599 0 0  3.43999999999763 0 0  3.45999999999766 0 0  3.47999999999769 0 0  3.49999999999772 0 0  3.519999999997751 0 0  3.539999999997781 0 0  3.559999999997812 0 0  3.579999999997842 0 0  3.599999999997872 0 0  3.619999999997903 0 0  3.639999999997933 0 0  3.659999999997964 0 0  3.679999999997994 0 0  3.699999999998025 0 0  3.719999999998055 0 0  3.739999999998085 0 0  3.759999999998116 0 0  3.779999999998147 0 0  3.799999999998176 0 0  3.819999999998207 0 0  3.839999999998238 0 0  3.859999999998267 0 0  3.879999999998298 0 0  3.899999999998329 0 0  3.919999999998359 0 0  3.939999999998389 0 0  3.95999999999842 0 0  3.97999999999845 0 0  3.99999999999848 0 0  4.019999999998511 0 0  4.039999999998542 0 0  4.059999999998571 0 0  4.079999999998602 0 0  4.099999999998633 0 0  4.119999999998663 0 0  4.139999999998693 0 0  4.159999999998724 0 0  4.179999999998754 0 0  4.199999999998784 0 0  4.219999999998815 0 0  4.239999999998845 0 0  4.259999999998875 0 0  4.279999999998906 0 0  4.299999999998937 0 0  4.319999999998966 0 0  4.339999999998997 0 0  4.359999999999028 0 0  4.379999999999058 0 0  4.399999999999088 0 0  4.419999999999119 0 0  4.439999999999149 0 0  4.459999999999179 0 0  4.47999999999921 0 0  4.49999999999924 0 0  4.51999999999927 0 0  4.539999999999301 0 0  4.559999999999331 0 0  4.579999999999361 0 0  4.599999999999392 0 0  4.619999999999423 0 0  4.639999999999453 0 0  4.659999999999483 0 0  4.679999999999513 0 0  4.699999999999544 0 0  4.719999999999574 0 0  4.739999999999605 0 0  4.759999999999635 0 0  4.779999999999665 0 0  4.799999999999695 0 0  4.819999999999726 0 0  4.839999999999756 0 0  4.859999999999787 0 0  4.879999999999818 0 0  4.899999999999848 0 0  4.919999999999878 0 0  4.939999999999908 0 0  4.95999999999994 0 0  4.979999999999969 0 0  5 0.01999999999996237 0  5 0.03999999999992186 0  5 0.05999999999987837 0  5 0.07999999999984518 0  5 0.09999999999981463 0  5 0.1199999999997832 0  5 0.1399999999997328 0  5 0.1599999999996745 0  5 0.1799999999996162 0  5 0.1999999999995579 0  5 0.2199999999994996 0  5 0.2399999999994413 0  5 0.259999999999383 0  5 0.2799999999993247 0  5 0.2999999999992664 0  5 0.3199999999992081 0  5 0.3399999999991498 0  5 0.3599999999990915 0  5 0.3799999999990332 0  5 0.3999999999989749 0  5 0.4199999999989167 0  5 0.4399999999988584 0  5 0.4599999999988 0  5 0.4799999999987418 0  5 0.4999999999986943 0  5 0.5199999999987361 0  5 0.5399999999987888 0  5 0.5599999999988415 0  5 0.5799999999988942 0  5 0.5999999999989468 0  5 0.6199999999989995 0  5 0.6399999999990521 0  5 0.6599999999991049 0  5 0.6799999999991574 0  5 0.6999999999992101 0  5 0.7199999999992628 0  5 0.7399999999993154 0  5 0.7599999999993681 0  5 0.7799999999994207 0  5 0.7999999999994734 0  5 0.8199999999995261 0  5 0.8399999999995788 0  5 0.8599999999996314 0  5 0.8799999999996841 0  5 0.8999999999997367 0  5 0.9199999999997894 0  5 0.939999999999842 0  5 0.9599999999998947 0  5 0.9799999999999475 0  4.98 1 0  4.96 1 0  4.94 1 0  4.92 1 0  4.899999999999999 1 0  4.88 1 0  4.859999999999999 1 0  4.84 1 0  4.819999999999999 1 0  4.8 1 0  4.779999999999999 1 0  4.76 1 0  4.739999999999999 1 0  4.72 1 0  4.699999999999999 1 0  4.68 1 0  4.659999999999999 1 0  4.64 1 0  4.619999999999999 1 0  4.6 1 0  4.579999999999999 1 0  4.56 1 0  4.539999999999999 1 0  4.52 1 0  4.499999999999999 1 0  4.48 1 0  4.459999999999999 1 0  4.44 1 0  4.419999999999999 1 0  4.399999999999999 1 0  4.379999999999999 1 0  4.359999999999999 1 0  4.339999999999999 1 0  4.319999999999999 1 0  4.299999999999999 1 0  4.279999999999999 1 0  4.259999999999999 1 0  4.239999999999998 1 0  4.219999999999999 1 0  4.199999999999998 1 0  4.179999999999999 1 0  4.159999999999998 1 0  4.139999999999999 1 0  4.119999999999998 1 0  4.099999999999999 1 0  4.079999999999998 1 0  4.059999999999999 1 0  4.039999999999998 1 0  4.019999999999998 1 0  3.999999999999998 1 0  3.979999999999998 1 0  3.959999999999998 1 0  3.939999999999998 1 0  3.919999999999998 1 0  3.899999999999998 1 0  3.879999999999998 1 0  3.859999999999998 1 0  3.839999999999998 1 0  3.819999999999998 1 0  3.799999999999998 1 0  3.779999999999998 1 0  3.759999999999998 1 0  3.739999999999998 1 0  3.719999999999998 1 0  3.699999999999998 1 0  3.679999999999998 1 0  3.659999999999997 1 0  3.639999999999998 1 0  3.619999999999997 1 0  3.599999999999997 1 0  3.579999999999997 1 0  3.559999999999998 1 0  3.539999999999997 1 0  3.519999999999998 1 0  3.499999999999998 1 0  3.479999999999998 1 0  3.459999999999998 1 0  3.439999999999998 1 0  3.419999999999997 1 0  3.399999999999998 1 0  3.379999999999998 1 0  3.359999999999998 1 0  3.339999999999998 1 0  3.319999999999998 1 0  3.299999999999998 1 0  3.279999999999998 1 0  3.259999999999998 1 0  3.239999999999998 1 0  3.219999999999998 1 0  3.199999999999998 1 0  3.179999999999998 1 0  3.159999999999998 1 0  3.139999999999998 1 0  3.119999999999998 1 0  3.099999999999998 1 0  3.079999999999998 1 0  3.059999999999998 1 0  3.039999999999998 1 0  3.019999999999998 1 0  2.999999999999998 1 0  2.979999999999998 1 0  2.959999999999998 1 0  2.939999999999998 1 0  2.919999999999998 1 0  2.899999999999998 1 0  2.879999999999998 1 0  2.859999999999998 1 0  2.839999999999998 1 0  2.819999999999998 1 0  2.799999999999998 1 0  2.779999999999998 1 0  2.759999999999998 1 0  2.739999999999998 1 0  2.719999999999998 1 0  2.699999999999998 1 0  2.679999999999998 1 0  2.659999999999998 1 0  2.639999999999998 1 0  2.619999999999998 1 0  2.599999999999998 1 0  2.579999999999998 1 0  2.559999999999998 1 0  2.539999999999998 1 0  2.519999999999998 1 0  2.499999999999998 1 0  2.479999999999998 1 0  2.459999999999998 1 0  2.439999999999998 1 0  2.419999999999998 1 0  2.399999999999999 1 0  2.379999999999999 1 0
[...]
<PointData  Vectors="Velocity"> 
<DataArray  type="Float64"  Name="Velocity"  NumberOfComponents="3" format="ascii">0.0000000000000000e+00 0.0000000000000000e+00 0.0000000000000000e+00  9.4968834274338447e+06 6.1897098826396577e+06 0.0000000000000000e+00  -1.3187827442794864e+05 -1.5700549959896615e+05 0.0000000000000000e+00  0.0000000000000000e+00 0.0000000000000000e+00 0.0000000000000000e+00  2.0000000000000000e+02 1.0000000000000000e+01 0.0000000000000000e+00  0.0000000000000000e+00 0.0000000000000000e+00 0.0000000000000000e+00  -1.3990884887470598e+04 -3.1726312622700119e+04 0.0000000000000000e+00  -1.9792498380577752e+04 -4.9496084804064289e+04 0.0000000000000000e+00  -2.0522525230187020e+04 -6.1222103340202266e+04 0.0000000000000000e+00  -1.8779844362968288e+04 -6.8805867102874676e+04 0.0000000000000000e+00  -1.5054890766739902e+04 -7.2893165944683104e+04 0.0000000000000000e+00  -9.8423313219960146e+03 -7.4128389417409577e+04 0.0000000000000000e+00  -3.3320143363421666e+03 -7.3065479317339603e+04 0.0000000000000000e+00  4.4730524591482190e+03 -7.0157645338505652e+04 0.0000000000000000e+00  1.3985825630176696e+04 -6.5837341782288611e+04 0.0000000000000000e+00  2.5540374413168658e+04 -6.0222668645333972e+04 0.0000000000000000e+00  4.2514463203603940e+04 -5.4748535583229976e+04 0.0000000000000000e+00  6.1998553668603250e+04 -4.6453309566162447e+04 0.0000000000000000e+00  9.6010822928010952e+04 5.8763311049131153e+02 0.0000000000000000e+00  2.3312527160810633e+05 1.8974448913437090e+05 0.0000000000000000e+00  2.1726233988150524e+05 2.1402345374137396e+05 0.0000000000000000e+00  2.1397876130000193e+05 2.2448799325527356e+05 0.0000000000000000e+00  1.9428831783406789e+05 2.0116165182540330e+05 0.0000000000000000e+00  1.0416497502181603e+05 1.0585999887949319e+05 0.0000000000000000e+00  -8.2100171921360583e+04 -1.0339934491404725e+05 0.0000000000000000e+00  -3.3046248030936072e+05 -2.1490124762322369e+05 0.0000000000000000e+00  -5.1698322679094371e+05 -4.6778890339387080e+05 0.0000000000000000e+00  -8.9689233013093751e+05 -3.1963489919513150e+05 0.0000000000000000e+00  -5.7040011517303530e+05 -7.2250299904957647e+04 0.0000000000000000e+00  -5.1302084948416275e+05 -2.7340278471368987e+04 0.0000000000000000e+00  -4.5359968392513529e+05 8.9987520564835031e+03 0.0000000000000000e+00  -4.2140113611789589e+05 2.5785286250133449e+04 0.0000000000000000e+00  -3.9380395871847577e+05 3.7854255123540381e+04 0.0000000000000000e+00  -3.7031114687697380e+05 4.5443982977382679e+04 0.0000000000000000e+00  -3.4801619909573335e+05 4.9462266981830180e+04 0.0000000000000000e+00  -3.2576369978265639e+05 5.0124730475353972e+04 0.0000000000000000e+00  -3.0314543283455505e+05 4.7692048895467247e+04 0.0000000000000000e+00  -2.8036557187227329e+05 4.2461768249746870e+04 0.0000000000000000e+00  -2.5801784892481426e+05 3.4767735787159960e+04 0.0000000000000000e+00  -2.3699226965761601e+05 2.4796400738900076e+04 0.0000000000000000e+00  -2.1835342787879248e+05 1.2416209624239391e+04 0.0000000000000000e+00  -2.0357905887252156e+05 -3.0513808993802668e+03 0.0000000000000000e+00  -1.9440916148016136e+05 -2.3528634457187494e+04 0.0000000000000000e+00  -1.9406257971874415e+05 -5.2103945009047799e+04 0.0000000000000000e+00  -2.1083556811047540e+05 -8.7429104149782317e+04 0.0000000000000000e+00  -2.6967412226000469e+05 -5.7540234393531347e+04 0.0000000000000000e+00  -7.2795500381714734e+05 7.8226961865360895e+05 0.0000000000000000e+00  -4.3149314913408402e+06 7.5522679233631203e+06 0.0000000000000000e+00  -2.5740876712434635e+07 4.6924282518027775e+07 0.0000000000000000e+00  -1.6295173778962159e+08 1.6286211261531636e+08 0.0000000000000000e+00  -7.3605733487459552e+08 2.0757204376834363e+08 0.0000000000000000e+00  -6.3542326478785431e+08 1.1585891558400156e+08 0.0000000000000000e+00  7.6975093599601135e+07 2.5585122325707531e+08 0.0000000000000000e+00  1.0697586588030952e+08 1.2934391528909658e+08 0.0000000000000000e+00  9.9922938730740082e+06 2.6445372508116696e+07 0.0000000000000000e+00  -1.8098658905995490e+06 6.0423747205913514e+06 0.0000000000000000e+00  -1.1172827940728811e+06 1.0331148529949852e+06 0.0000000000000000e+00  -1.2688356578689143e+06 5.7114745583867794e+05 0.0000000000000000e+00  -7.8319062323217443e+05 3.9386330308069225e+05 0.0000000000000000e+00  -5.0542714874266990e+05 1.0743724692854787e+05 0.0000000000000000e+00  -3.1586930204034498e+05 -1.4894283876744477e+04 0.0000000000000000e+00  -2.2652711678368025e+05 -5.9428642710010870e+04 0.0000000000000000e+00  -1.8971882358035719e+05 -6.5891175462000581e+04 0.0000000000000000e+00  -1.7759199098657380e+05 -6.2097337061321232e+04 0.0000000000000000e+00  -1.7455292618436841e+05 -5.7570753938291993e+04 0.0000000000000000e+00  -1.7392102635670314e+05 -5.5081252412990230e+04 0.0000000000000000e+00  -1.7294956161950686e+05 -5.4965844806499968e+04 0.0000000000000000e+00  -1.7088304666572856e+05 -5.6766640814493483e+04 0.0000000000000000e+00  -1.6769456135986437e+05 -5.9704913362936728e+04 0.0000000000000000e+00  -1.6380597006243558e+05 -6.3093322580157183e+04 0.0000000000000000e+00  -1.5970678999972026e+05 -6.6414352825929906e+04 0.0000000000000000e+00  -1.5585806687350268e+05 -6.9345162412800113e+04 0.0000000000000000e+00  -1.5255648140310921e+05 -7.1741340482553147e+04 0.0000000000000000e+00  -1.4996351547506923e+05 -7.3542239639489679e+04 0.0000000000000000e+00  -1.4805445228379563e+05 -7.4774342424104514e+04 0.0000000000000000e+00  -1.4668878691930312e+05 -7.5444928160901894e+04 0.0000000000000000e+00  -1.4562100787602228e+05 -7.5548439345282168e+04 0.0000000000000000e+00  -1.4450847007952325e+05 -7.5006431936958717e+04 0.0000000000000000e+00  -1.4304065886217551e+05 -7.3720826355310026e+04 0.0000000000000000e+00  -1.4076258263566467e+05 -7.1483577525636618e+04 0.0000000000000000e+00  -1.3732222197634316e+05 -6.8077490548068745e+04 0.0000000000000000e+00  -1.3231662745948130e+05 -6.3193271147097141e+04 0.0000000000000000e+00  -1.2538587745155160e+05 -5.6484647712592749e+04 0.0000000000000000e+00  -1.1620171294685724e+05 -4.7552843670358605e+04 0.0000000000000000e+00  -1.0447179375132604e+05 -3.5940424501892936e+04 0.0000000000000000e+00  -8.9912126300361895e+04 -2.1090948731426113e+04 0.0000000000000000e+00  -7.2260645575290488e+04 -2.4341798610112746e+03 0.0000000000000000e+00  -5.1309890895970413e+04 2.0462540567416567e+04 0.0000000000000000e+00  -2.7013948850129607e+04 4.7950184533058622e+04 0.0000000000000000e+00  3.8773993372268160e+02 8.0086909268772230e+04 0.0000000000000000e+00  3.0227862210691179e+04 1.1661632944533802e+05 0.0000000000000000e+00  6.1164192982717665e+04 1.5647738959181239e+05 0.0000000000000000e+00  9.0944498417862487e+04 1.9726641649794800e+05 0.0000000000000000e+00  1.1641767796889637e+05 2.3474450549318764e+05 0.0000000000000000e+00  1.3393412691670956e+05 2.6257486647473916e+05 0.0000000000000000e+00  1.4042121092617372e+05 2.7355613943338778e+05 0.0000000000000000e+00  1.3560636613051390e+05 2.6225259813472163e+05 0.0000000000000000e+00  1.2418170814894234e+05 2.2948849208059299e+05 0.0000000000000000e+00  1.1906973609604682e+05 1.8838951257687726e+05 0.0000000000000000e+00  1.4233015599614906e+05 1.7276862409073240e+05 0.0000000000000000e+00  2.1210369092182425e+05 2.2969262123051917e+05 0.0000000000000000e+00  3.1795460256051639e+05 3.7677068423838035e+05 0.0000000000000000e+00  4.2547878757007659e+05 5.6693286843434779e+05 0.0000000000000000e+00  5.1753207726816676e+05 7.4557487538557767e+05 0.0000000000000000e+00  5.7550003130977089e+05 9.0180197289162222e+05 0.0000000000000000e+00  5.3551294942853309e+05 9.6338592766293825e+05 0.0000000000000000e+00  3.7405206220348191e+05 8.0645130112071079e+05 0.0000000000000000e+00  1.7044432268774172e+05 4.4719209088662092e+05 0.0000000000000000e+00  1.0990793909169384e+04 3.8346750617652433e+04 0.0000000000000000e+00  -7.9096757442716756e+04 -2.8224496238378854e+05 0.0000000000000000e+00  -1.1534110501318422e+05 -4.5549160393247707e+05 0.0000000000000000e+00  -1.2665049547871966e+05 -4.8924455767219776e+05 0.0000000000000000e+00  -1.3320713526782006e+05 -4.3299744789884967e+05 0.0000000000000000e+00  -1.4273740964014543e+05 -3.4034502283468860e+05 0.0000000000000000e+00  -1.5003351646424746e+05 -2.4045114925412292e+05 0.0000000000000000e+00  -1.5066206163322413e+05 -1.3594703143428819e+05 0.0000000000000000e+00  -1.4739664598367037e+05 -2.1892825161709101e+04 0.0000000000000000e+00  -1.4746331774319959e+05 9.2122516294263653e+04 0.0000000000000000e+00  -1.5558003228989273e+05 1.8027426225406991e+05 0.0000000000000000e+00  -1.6613928662814319e+05 2.2743406735439942e+05 0.0000000000000000e+00  -1.6679391936905577e+05 2.4059336952647177e+05 0.0000000000000000e+00  -1.5772019450280356e+05 2.3098295013259663e+05 0.0000000000000000e+00  -1.4247365947040392e+05 2.0967315687249150e+05 0.0000000000000000e+00  -1.2610714162078590e+05 1.8484825060286577e+05 0.0000000000000000e+00  -1.0923589538844646e+05 1.6058470469772603e+05 0.0000000000000000e+00  -9.0793119546960326e+04 1.3682005787422173e+05 0.0000000000000000e+00  -7.2826215779402264e+04 1.1187347050746955e+05 0.0000000000000000e+00  -5.6354014333835788e+04 8.0450828195929484e+04 0.0000000000000000e+00  -6.9897662433266669e+04 6.6148637347315293e+04 0.0000000000000000e+00  1.2512440905354846e+05 -7.9161302354531099e+03 0.0000000000000000e+00  -3.3853229793195256e+04 -5.8069041366204066e+04 0.0000000000000000e+00  -6.3311145636254369e+04 -4.9451330472048925e+04 0.0000000000000000e+00  6.1944927161536529e+04 -3.1473091516817462e+04 0.0000000000000000e+00  1.4608396573753405e+05 -9.4675884074792149e+04 0.0000000000000000e+00  -9.1408312527859453e+04 -5.6030572609288916e+04 0.0000000000000000e+00  -2.2975638831429602e+04 -3.9554594361718053e+04 0.0000000000000000e+00  -4.1398646477692608e+04 -3.7544378180669206e+04 0.0000000000000000e+00  -5.8072807713569782e+03 -8.5020839485169763e+03 0.0000000000000000e+00  1.4984291908401850e+04 2.9407162195942510e+04 0.0000000000000000e+00  5.2495967515432407e+04 6.8575910829329907e+04 0.0000000000000000e+00  8.6981177982330395e+04 4.9183258186856146e+04 0.0000000000000000e+00  -1.4474538521913608e+04 -1.9340043309890243e+03 0.0000000000000000e+00  2.6465035513594765e+04 3.0482614690393842e+04 0.0000000000000000e+00  4.2610136796177787e+04 5.6057462949940113e+04 0.0000000000000000e+00  -3.3603703089347655e+03 5.0898354164028766e+04 0.0000000000000000e+00  1.3110548692797662e+04 6.7582765581968037e+04 0.0000000000000000e+00  1.1779127823460803e+04 7.3748221457699561e+04 0.0000000000000000e+00  1.6173462716325801e+04 8.4527552442053406e+04 0.0000000000000000e+00  1.9174592682351064e+04 9.7667050624220545e+04 0.0000000000000000e+00  2.3282328201597520e+04 1.1326262781409689e+05 0.0000000000000000e+00  2.9407324382053150e+04 1.3006128294436139e+05 0.0000000000000000e+00  3.9586367330648856e+04 1.4692357120473322e+05 0.0000000000000000e+00  5.5335079474215207e+04 1.6245650867607939e+05 0.0000000000000000e+00  7.7507111607635379e+04 1.7480170920297143e+05 0.0000000000000000e+00  1.0506909543253369e+05 1.8145499537808477e+05 0.0000000000000000e+00  1.3406509430866386e+05 1.7842870627712656e+05 0.0000000000000000e+00  1.5713889936261997e+05 1.5879133073497948e+05 0.0000000000000000e+00  1.7202419300898752e+05 1.1760599844235754e+05 0.0000000000000000e+00  1.6909103900888292e+05 4.8166004634202196e+04 0.0000000000000000e+00  1.4890690305468967e+05 -2.6901412365798591e+04 0.0000000000000000e+00  2.4786284090145462e+04 -9.5049295915806608e+04 0.0000000000000000e+00  -7.9116092846354790e+04 -2.0672373308111110e+05 0.0000000000000000e+00  -4.2386103323024150e+05 1.3270058645713585e+05 0.0000000000000000e+00  9.8364365843428241e+04 2.7889698717670038e+05 0.0000000000000000e+00  4.9008439948581858e+05 7.8585563185192388e+05 0.0000000000000000e+00  -3.8820429987406055e+05 -1.2802945349776717e+06 0.0000000000000000e+00  -4.0309270354052708e+06 -1.1017613281032680e+07 0.0000000000000000e+00  2.5678796222438775e+06 -8.2705578878904693e+06 0.0000000000000000e+00  -3.7617167749096407e+05 -9.4374554530733032e+05 0.0000000000000000e+00  -6.5612775767079380e+04 1.6823744064331960e+05 0.0000000000000000e+00  -3.4914681076655281e+04 1.9211828672499876e+05 0.0000000000000000e+00  7.6475948730852702e+04 2.2289199236533992e+05 0.0000000000000000e+00  -1.0202236100850061e+05 -1.8604786921557333e+05 0.0000000000000000e+00  5.6520421252363618e+05 -8.4674752490016341e+04 0.0000000000000000e+00  -7.1716074468854256e+05 -1.8757314998241985e+05 0.0000000000000000e+00  2.2157293608759460e+05 8.1625851868607700e+04 0.0000000000000000e+00  4.6334405540255620e+05 1.4211863123248352e+05 0.0000000000000000e+00  7.8571568311274852e+04 6.0031437094822689e+05 0.0000000000000000e+00  3.8661875382677704e+05 -1.6714489472958147e+04 0.0000000000000000e+00  -6.3805159151526481e+04 -4.6600287918520981e+05 0.0000000000000000e+00  4.5638208584887569e+05 1.1419561317464614e+06 0.0000000000000000e+00  -1.6579491991660072e+05 -6.4755773732634122e+05 0.0000000000000000e+00  5.4674420444649132e+05 -7.5223961890309525e+05 0.0000000000000000e+00  -1.9857344240615761e+05 3.3403295732125995e+05 0.0000000000000000e+00  -8.8542169593361512e+04 -3.0768517334266833e+05 0.0000000000000000e+00  3.0985231279325933e+04 -6.6919608032808162e+05 0.0000000000000000e+00  -4.3637875168270711e+05 2.1960033450284795e+05 0.0000000000000000e+00  3.7437321564590756e+05 8.6641969509816344e+05 0.0000000000000000e+00  -7.5004134292304795e+05 1.0680333393677828e+05 0.0000000000000000e+00  3.6714898177908617e+04 2.2223019076139055e+05 0.0000000000000000e+00  -1.5015467936571455e+05 1.1514469308112508e+06 0.0000000000000000e+00  1.5789555600489171e+06 4.0370240148133300e+06 0.0000000000000000e+00  4.8391297682637087e+04 -4.6578042639288504e+05 0.0000000000000000e+00  5.3948452114660991e+05 1.0700655547251247e+06 0.0000000000000000e+00  5.3835411362655926e+05 7.1457156544724794e+05 0.0000000000000000e+00  -1.1995539908277012e+05 5.5101606649730285e+05 0.0000000000000000e+00  -4.6106204111690534e+05 5.7957552667008858e+04 0.0000000000000000e+00  2.6053864890776156e+05 2.9372702590467827e+05 0.0000000000000000e+00  -3.5090406415686273e+04 1.7115635819835676e+05 0.0000000000000000e+00  2.4445325284108134e+04 2.4528293279220269e+05 0.0000000000000000e+00  -1.8088050405361998e+05 -2.2340275081369394e+05 0.0000000000000000e+00  -3.2022598168614984e+05 2.2171414552692228e+05 0.0000000000000000e+00  -2.0799958489296676e+05 -3.0244728317688394e+05 0.0000000000000000e+00  -1.4243351709433625e+05 -2.5075948186669510e+05 0.0000000000000000e+00  2.2941714441971254e+05 2.7649849447980331e+05 0.0000000000000000e+00  -1.2755584174062187e+05 -2.4703705002571273e+05 0.0000000000000000e+00  1.6782486772950255e+04 1.6477136738959318e+04 0.0000000000000000e+00  -5.4568377337157835e+04 1.2367912684942850e+05 0.0000000000000000e+00  -4.9580974889052639e+04 4.6166840659635884e+04 0.0000000000000000e+00  -2.4186765270125255e+04 2.1584551799231333e+04 0.0000000000000000e+00  -7.7229115758467407e+04 2.3881047498497472e+04 0.0000000000000000e+00  -1.6119235673531930e+03 1.0758809469297190e+04 0.0000000000000000e+00  -3.9115373670058187e+04 2.6809037742475930e+03 0.0000000000000000e+00  -3.6550509337337797e+04 -3.0756204591918763e+03 0.0000000000000000e+00  -1.4660796808448704e+04 -2.3571846909969296e+04 0.0000000000000000e+00  -9.9509616988104844e+03 4.6046703690446811e+04 0.0000000000000000e+00  -6.8422904196566873e+04 1.3040611835598991e+05 0.0000000000000000e+00  4.2426016933987802e+05 -1.5806409249659211e+05 0.0000000000000000e+00  4.6001302832089720e+05 5.4820763911484391e+04 0.0000000000000000e+00  1.4820127440152381e+05 -1.2509279088744051e+06 0.0000000000000000e+00  -5.6319462289944978e+05 1.1869830217792490e+06 0.0000000000000000e+00  -1.2535499497902306e+05 2.6528198222384776e+05 0.0000000000000000e+00  -1.3074862237704608e+06 9.7573325114463258e+05 0.0000000000000000e+00  -2.5056307521399629e+05 -4.2786550203507794e+06 0.0000000000000000e+00  1.7143230141219860e+06 -1.7445084434648505e+06 0.0000000000000000e+00  3.3646843898846637e+06 -3.3519352475535660e+05 0.0000000000000000e+00  -2.4401823342368808e+06 -2.7982609674070636e+05 0.0000000000000000e+00  -1.3533339855333376e+06 1.0696861724973954e+06 0.0000000000000000e+00  3.0388156429525494e+05 -1.4398944086597739e+06 0.0000000000000000e+00  2.2205186314174160e+06 -1.2214380005232943e+06 0.0000000000000000e+00  -2.2902641492094807e+06 -1.2917259685497084e+06 0.0000000000000000e+00  1.0676298143361278e+06 1.4766099878379707e+06 0.0000000000000000e+00  -1.6806274482605420e+05 7.3659835513862839e+05 0.0000000000000000e+00  4.4117772839515435e+05 -3.6887587209616601e+05 0.0000000000000000e+00  -1.9676868433984760e+06 2.1734757436875789e+05 0.0000000000000000e+00  4.0039216439335968e+05 -2.1874808571466226e+06 0.0000000000000000e+00  -1.0542711578765630e+06 -4.8892851719809668e+06 0.0000000000000000e+00  8.2773549063742592e+05 -4.6746353439942352e+05 0.0000000000000000e+00  7.0360457670280756e+05 -7.6284948516848288e+05 0.0000000000000000e+00  -2.1958507122909566e+06 -1.8795601841869089e+05 0.0000000000000000e+00  -1.5309991630646023e+06 3.3205270571590429e+06 0.0000000000000000e+00  3.2635289640649608e+06 -1.0643524565622595e+06 0.0000000000000000e+00  -3.2576908389815059e+05 -5.8763643800286367e+05 0.0000000000000000e+00  -6.3637027439737273e+05 1.4011393676001765e+05 0.0000000000000000e+00  -1.1525072641541145e+06 1.1957463314761221e+05 0.0000000000000000e+00  3.8881330261939205e+04 -4.3231097852116567e+04 0.0000000000000000e+00  -8.0739974468206009e+05 7.8470815998295113e+05 0.0000000000000000e+00  1.3738460110761668e+06 -3.7733789329777774e+05 0.0000000000000000e+00  -3.3116651226248853e+06 -9.2693778093346395e+05 0.0000000000000000e+00  2.1969625132742217e+06 1.1257655274877439e+06 0.0000000000000000e+00  3.9117407904418427e+06 -2.2726111167914416e+06 0.0000000000000000e+00  2.9017836385632837e+06 9.2825665046260669e+05 0.0000000000000000e+00  5.5186766854844447e+06 4.3184490175477453e+06 0.0000000000000000e+00  -2.2487916961506102e+06 -4.1108258223249894e+06 0.0000000000000000e+00  -1.6217885050801840e+07 4.6765256672343900e+06 0.0000000000000000e+00  8.0073486471277867e+06 -7.3673733825557921e+06 0.0000000000000000e+00  6.7379324128930541e+06 1.6197501188146496e+07 0.0000000000000000e+00  -6.0800185413987134e+06 8.6785961713573849e+05 0.0000000000000000e+00  2.7160106646102788e+06 -3.3377252850000858e+06 0.0000000000000000e+00  -1.3408984048324027e+06 -3.1325990298523521e+06 0.0000000000000000e+00  1.8444196029136907e+06 -9.5348049224964972e+05 0.0000000000000000e+00  2.1726443039782192e+06 -3.0490075563457017e+06 0.0000000000000000e+00  2.2332796215982842e+06 -4.6139079655143451e+06 0.0000000000000000e+00  6.8787988118636152e+06 3.9655008974308739e+06 0.0000000000000000e+00  -3.0220119508707244e+06 -2.8727388717413014e+06 0.0000000000000000e+00  3.9276248713649705e+05 3.3870171409631683e+06 0.0000000000000000e+00  4.9601569368191902e+05 6.7214115062277671e+05 0.0000000000000000e+00  -1.0159294467055654e+06 1.8754860550318595e+06 0.0000000000000000e+00  -5.9277370310141682e+05 1.8081353285219092e+06 0.0000000000000000e+00  2.1524757035717275e+06 3.0383425503638346e+05 0.0000000000000000e+00  2.3515340900913333e+06 -7.5228911750657205e+05 0.0000000000000000e+00  -2.3380228543596901e+06 -4.4844831601319332e+06 0.0000000000000000e+00  3.3448356123166298e+05 -3.5932621257801368e+06 0.0000000000000000e+00  -2.5416005632087705e+05 -2.0438318271744587e+06 0.0000000000000000e+00  -1.0411337887217597e+06 -7.8214280778749287e+05 0.0000000000000000e+00  -8.0753916596702917e+05 -2.0962422087744372e+06 0.0000000000000000e+00  3.3023217684369371e+06 6.0310497615447138e+06 0.0000000000000000e+00  -1.8173060299725835e+06 -5.3585524901583306e+06 0.0000000000000000e+00  -2.3586205423445688e+06 -2.3138575860933391e+06 0.0000000000000000e+00  -1.6910235554258265e+06 -8.0570835606653718e+06 0.0000000000000