<?xml version="1.0"?>
<VTKFile type="UnstructuredGrid"  version="0.1"  >
<UnstructuredGrid>
<Piece  NumberOfPoints="25087" NumberOfCells="49212">
<Points>
<DataArray  type="Float64"  NumberOfComponents="3"  format="ascii">0 0 0  0.75 0 0  0.85 0 0  1.8 0 0  1.8 0.1 0  0 0.1 0  0.009939587277681541 0 0  0.01987917455536239 0 0  0.02981876183304314 0 0  0.03975834911072389 0 0  0.04969793638840794 0 0  0.05963752366609719 0 0  0.06957711094378713 0 0  0.07951669822147707 0 0  0.08945628549916627 0 0  0.09939587277684642 0 0  0.109335460054518 0 0  0.1192750473321896 0 0  0.1292146346098671 0 0  0.1391542218875571 0 0  0.149093809165247 0 0  0.1590333964429369 0 0  0.1689729837206268 0 0  0.1789125709983168 0 0  0.1888521582760067 0 0  0.1987917455536966 0 0  0.2087313328313865 0 0  0.2186709201090765 0 0  0.2286105073867664 0 0  0.2385500946644563 0 0  0.2484896819421462 0 0  0.2584292692198362 0 0  0.2683688564975261 0 0  0.278308443775216 0 0  0.288248031052906 0 0  0.2981876183305959 0 0  0.3081272056082858 0 0  0.3180667928859758 0 0  0.3280063801636657 0 0  0.3379459674413556 0 0  0.3478855547190456 0 0  0.3578251419967355 0 0  0.3677647292744254 0 0  0.3777043165521413 0 0  0.3876439038298989 0 0  0.3975834911076623 0 0  0.4075230783854257 0 0  0.4174626656631892 0 0  0.4274022529409527 0 0  0.4373418402187161 0 0  0.4472814274964795 0 0  0.457221014774243 0 0  0.4671606020520065 0 0  0.4771001893297699 0 0  0.4870397766075334 0 0  0.4969793638852968 0 0  0.5067309463239997 0 0  0.5157711254978494 0 0  0.5241202977806269 0 0  0.5318312802296193 0 0  0.5389528546926976 0 0  0.5455300745089914 0 0  0.5516045497071054 0 0  0.5572147069557104 0 0  0.562396037778403 0 0  0.5671813217260944 0 0  0.5716008310492434 0 0  0.5756825257083404 0 0  0.5794522250791264 0 0  0.582933778518776 0 0  0.5861492110966979 0 0  0.5891188647964261 0 0  0.5918615250678128 0 0  0.5943945443357254 0 0  0.5967339452616621 0 0  0.5988945293659402 0 0  0.6009061908335473 0 0  0.6028941082891001 0 0  0.6048820257446528 0 0  0.6068699432002055 0 0  0.6088578606557582 0 0  0.6108457781113108 0 0  0.6128336955668636 0 0  0.6148216130224162 0 0  0.616809530477969 0 0  0.6187974479335216 0 0  0.6207853653890744 0 0  0.6227732828446271 0 0  0.6247612003001798 0 0  0.6267491177557325 0 0  0.6287370352112852 0 0  0.6307249526668378 0 0  0.6327128701223905 0 0  0.6347007875779432 0 0  0.6366887050334959 0 0  0.6386766224890487 0 0  0.6406645399446014 0 0  0.642652457400154 0 0  0.6446403748557068 0 0  0.6466282923112595 0 0  0.6486162097668122 0 0  0.6506041272223648 0 0  0.6525920446779175 0 0  0.6545799621334703 0 0  0.656567879589023 0 0  0.6585557970445757 0 0  0.6605437145001284 0 0  0.6625316319556811 0 0  0.6645195494112337 0 0  0.6665074668667865 0 0  0.6684953843223391 0 0  0.6704833017778919 0 0  0.6724712192334446 0 0  0.6744591366889973 0 0  0.67644705414455 0 0  0.6784349716001027 0 0  0.6804228890556554 0 0  0.6824108065112081 0 0  0.6843987239667607 0 0  0.6863866414223134 0 0  0.6883745588778661 0 0  0.6903624763334189 0 0  0.6923503937889716 0 0  0.6943383112445243 0 0  0.696326228700077 0 0  0.6983141461556297 0 0  0.7003020636111823 0 0  0.7022899810667351 0 0  0.7042778985222878 0 0  0.7062658159778404 0 0  0.7082537334333932 0 0  0.7102416508889459 0 0  0.7122295683444986 0 0  0.7142174858000513 0 0  0.716205403255604 0 0  0.7181933207111566 0 0  0.7201812381667094 0 0  0.722169155622262 0 0  0.7241570730778149 0 0  0.7261449905333676 0 0  0.7281329079889202 0 0  0.7301208254444729 0 0  0.7321087429000257 0 0  0.7340966603555783 0 0  0.7360845778111311 0 0  0.7380724952666838 0 0  0.7400604127222364 0 0  0.7420483301777892 0 0  0.7440362476333419 0 0  0.7460241650888946 0 0  0.7480120825444474 0 0  0.8519928290587546 0 0  0.8539856581175093 0 0  0.855978487176264 0 0  0.8579713162350187 0 0  0.8599641452937733 0 0  0.8619569743525279 0 0  0.8639498034112826 0 0  0.8659426324700373 0 0  0.867935461528792 0 0  0.8699282905875466 0 0  0.8719211196463013 0 0  0.873913948705056 0 0  0.8759067777638107 0 0  0.8778996068225653 0 0  0.8798924358813199 0 0  0.8818852649400746 0 0  0.8838780939988293 0 0  0.885870923057584 0 0  0.8878637521163386 0 0  0.8898565811750933 0 0  0.8918494102338479 0 0  0.8938422392926026 0 0  0.8958350683513573 0 0  0.8978278974101119 0 0  0.8998207264688666 0 0  0.9018135555276212 0 0  0.903806384586376 0 0  0.9057992136451306 0 0  0.9077920427038852 0 0  0.9097848717626399 0 0  0.9117777008213945 0 0  0.9137705298801493 0 0  0.9157633589389039 0 0  0.9177561879976586 0 0  0.9197490170564132 0 0  0.921741846115168 0 0  0.9237346751739226 0 0  0.9257275042326772 0 0  0.9277203332914319 0 0  0.9297131623501866 0 0  0.9317059914089413 0 0  0.9336988204676959 0 0  0.9356916495264506 0 0  0.9376844785852052 0 0  0.93967730764396 0 0  0.9416701367027146 0 0  0.9436629657614692 0 0  0.9456557948202239 0 0  0.9476486238789785 0 0  0.9496414529377333 0 0  0.9516342819964879 0 0  0.9536271110552426 0 0  0.9556199401139972 0 0  0.957612769172752 0 0  0.9596055982315066 0 0  0.9615984272902612 0 0  0.9635912563490159 0 0  0.9655840854077706 0 0  0.9675769144665253 0 0  0.9695697435252775 0 0  0.9715625725840263 0 0  0.9735554016427752 0 0  0.9755482307015241 0 0  0.9775410597602689 0 0  0.9795338888190119 0 0  0.9815267178777549 0 0  0.9835195469364979 0 0  0.9855123759952465 0 0  0.9875052050539954 0 0  0.9894980341127442 0 0  0.9914908631714945 0 0  0.9934836922302491 0 0  0.9954765212890038 0 0  0.9974693503477584 0 0  0.9994621794065132 0 0  1.001455008465268 0 0  1.003447837524022 0 0  1.005440666582777 0 0  1.007433495641532 0 0  1.009426324700286 0 0  1.011419153759041 0 0  1.013411982817796 0 0  1.01540481187655 0 0  1.017397640935305 0 0  1.01939046999406 0 0  1.021383299052814 0 0  1.023376128111569 0 0  1.025368957170324 0 0  1.027361786229078 0 0  1.029354615287833 0 0  1.031347444346588 0 0  1.033340273405342 0 0  1.035333102464097 0 0  1.037325931522852 0 0  1.039318760581606 0 0  1.041311589640361 0 0  1.043304418699116 0 0  1.04529724775787 0 0  1.047290076816625 0 0  1.04928290587538 0 0  1.051275734934134 0 0  1.053268563992889 0 0  1.055261393051644 0 0  1.057254222110398 0 0  1.059247051169153 0 0  1.061239880227908 0 0  1.063232709286662 0 0  1.065225538345417 0 0  1.067218367404172 0 0  1.069211196462926 0 0  1.071204025521681 0 0  1.073196854580436 0 0  1.07518968363919 0 0  1.077182512697945 0 0  1.0791753417567 0 0  1.081168170815454 0 0  1.083160999874209 0 0  1.085153828932964 0 0  1.087146657991718 0 0  1.089139487050473 0 0  1.091132316109228 0 0  1.093125145167982 0 0  1.095117974226737 0 0  1.097110803285491 0 0  1.099103632344246 0 0  1.101096461403001 0 0  1.103089290461756 0 0  1.10508211952051 0 0  1.107074948579265 0 0  1.10906777763802 0 0  1.111060606696774 0 0  1.113053435755529 0 0  1.115046264814284 0 0  1.117039093873038 0 0  1.119031922931793 0 0  1.121024751990547 0 0  1.123017581049302 0 0  1.125010410108057 0 0  1.127003239166811 0 0  1.128996068225566 0 0  1.130988897284321 0 0  1.132981726343075 0 0  1.13497455540183 0 0  1.136967384460585 0 0  1.13896021351934 0 0  1.140953042578094 0 0  1.142945871636849 0 0  1.144938700695604 0 0  1.146931529754358 0 0  1.148924358813113 0 0  1.150917187871868 0 0  1.152910016930622 0 0  1.154902845989377 0 0  1.156895675048131 0 0  1.158888504106886 0 0  1.160881333165641 0 0  1.162874162224395 0 0  1.16486699128315 0 0  1.166859820341905 0 0  1.168852649400659 0 0  1.170845478459414 0 0  1.172838307518169 0 0  1.174831136576924 0 0  1.176823965635678 0 0  1.178816794694433 0 0  1.180809623753187 0 0  1.182802452811942 0 0  1.184795281870697 0 0  1.186788110929451 0 0  1.188780939988206 0 0  1.190773769046961 0 0  1.192766598105715 0 0  1.19475942716447 0 0  1.196752256223225 0 0  1.198745085281979 0 0  1.200748912638162 0 0  1.20288546443348 0 0  1.205199299294777 0 0  1.207705128061463 0 0  1.2104188818489 0 0  1.213357812369785 0 0  1.216540604460539 0 0  1.219987493828263 0 0  1.223720393159986 0 0  1.227763034966436 0 0  1.232141120812665 0 0  1.23688248446048 0 0  1.242017269350748 0 0  1.247578120948599 0 0  1.253600390288261 0 0  1.260122366103743 0 0  1.267185511970863 0 0  1.274834732580962 0 0  1.283118657571247 0 0  1.292089952249604 0 0  1.30179273530951 0 0  1.311756880603283 0 0  1.321721025897057 0 0  1.33168517119083 0 0  1.341649316484614 0 0  1.351613461778471 0 0  1.36157760707236 0 0  1.371541752366183 0 0  1.381505897659957 0 0  1.391470042953772 0 0  1.401434188247646 0 0  1.411398333541451 0 0  1.421362478835224 0 0  1.431326624129069 0 0  1.44129076942293 0 0  1.451254914716717 0 0  1.461219060010506 0 0  1.471183205304368 0 0  1.481147350598211 0 0  1.491111495891984 0 0  1.501075641185789 0 0  1.511039786479664 0 0  1.521003931773478 0 0  1.530968077067251 0 0  1.540932222361076 0 0  1.550896367654947 0 0  1.560860512948745 0 0  1.570824658242518 0 0  1.580788803536311 0 0  1.590752948830143 0 0  1.600717094123925 0 0  1.610681239417698 0 0  1.620645384711508 0 0  1.630609530005332 0 0  1.640573675299105 0 0  1.650537820592878 0 0  1.660501965886704 0 0  1.670466111180512 0 0  1.680430256474285 0 0  1.690394401768069 0 0  1.7003585470619 0 0  1.710322692355692 0 0  1.720286837649466 0 0  1.730250982943265 0 0  1.740215128237097 0 0  1.750179273530885 0 0  1.760143418824716 0 0  1.770107564118548 0 0  1.780071709412366 0 0  1.790035854706168 0 0  1.8 0.0001 0  1.8 0.00023 0  1.8 0.000399 0  1.8 0.0006187 0  1.8 0.0009043100000000001 0  1.8 0.001275603 0  1.8 0.0017582839 0  1.8 0.01140662711998408 0  1.8 0.02105497033995717 0  1.8 0.03070331355992841 0  1.8 0.04035165677989965 0  1.8 0.0499999999998722 0  1.8 0.05964834321989785 0  1.8 0.06929668643992376 0  1.8 0.07894502965995151 0  1.8 0.08859337287997926 0  1.8 0.0982417161 0  1.8 0.09872439700000001 0  1.8 0.09909569 0  1.8 0.09938130000000001 0  1.8 0.09960100000000001 0  1.8 0.09977000000000001 0  1.8 0.0999 0  1.790017325432064 0.1 0  1.780034650
[...]
<PointData  Scalars="Peclet"> 
<DataArray  type="Float64"  Name="Peclet"  format="ascii">7.0885970589593366e-05  3.8691978010797381e-06  -8.7952401605534300e-07  -8.8390009306023624e-04  8.8523355559021861e-04  -1.0665631770716608e-05  1.7290537451984700e-05  -1.4355878521833803e-04  -8.6278099313854276e-05  8.5627070777325256e-05  1.3831132828220766e-04  1.2110331848128674e-04  4.2993719127462751e-05  -5.0590805645985573e-06  5.3943655379515342e-06  8.4747759757407815e-06  -4.3230063475477027e-06  -2.1390218025700962e-07  1.4284686989858419e-06  3.8615143978028109e-06  2.5489572832185093e-06  6.3229396118421497e-06  8.9919758101415381e-06  5.8211422177334172e-06  -5.5357666871482176e-06  -1.1138220075500100e-06  1.9068483319714889e-05  2.8722531865379233e-05  3.6924761265497344e-05  6.8221830640600068e-05  1.0036725548356602e-04  4.2832959628842203e-05  -9.6872138218421026e-06  6.5850245326530998e-06  5.4389668809691989e-06  3.9031236315871825e-06  -6.2252425652079308e-06  4.5911478057682772e-06  2.6047139972729459e-05  3.2764161333960067e-05  3.0129272690034218e-05  -2.9586113020845464e-05  -4.6495958035188522e-05  -1.5095039176235175e-05  -4.6463343213395740e-06  1.2795372281307859e-05  1.3095263700910960e-05  1.9949766184530288e-05  2.2795466061694982e-05  -4.3914536349148502e-06  -1.2197396848288914e-05  -5.5759296713047709e-06  -1.3075797889453378e-05  -1.7023274570800611e-05  -9.0339490302297054e-06  -6.4675182900589720e-05  -1.4252179342272322e-04  -2.1623281252160725e-04  -1.4126962570568016e-04  -3.6772772544929410e-04  -2.5347110701264859e-04  1.1865036502105064e-04  5.9546991963970311e-05  -3.1366059607111391e-04  4.4062089004486767e-06  3.3644035231254470e-05  -1.6326628384819329e-04  -3.7091027063270029e-05  -1.0137735876774864e-04  -8.4122432295344397e-05  -8.0316301021143309e-05  4.7062114953596220e-05  3.4428765689457811e-05  -1.0596486685906245e-04  -7.3151113636758875e-05  -3.7466837755478321e-05  -9.7865079925727243e-06  9.5822320384936990e-06  -6.0337471602255076e-06  4.3108759604051737e-06  -1.3569109853655542e-06  3.4768918231891698e-06  1.9277158548639481e-06  -3.1123933408989409e-06  -4.1106742163204749e-06  -3.2617873385769809e-06  -3.0730157346371828e-06  -2.4188534824356467e-06  -4.2077423438368838e-07  -8.9596115161468438e-07  -9.8980583301677625e-07  -2.4642957299331647e-06  -2.0892941151515575e-06  -6.4298072766633625e-07  -1.7238698921339546e-06  -5.6298403453196313e-06  -5.3987200406858107e-06  2.3735848709560482e-06  -1.1047123327280098e-06  -1.1183676510760661e-05  -5.3549329780973581e-06  -2.8093917165161935e-06  1.5120780887760406e-06  3.1733802638016422e-06  3.0493716523697464e-07  -6.3757938543122315e-06  -5.0703258661569984e-06  -3.6008846350008703e-06  7.0918351734051816e-06  9.4433937974272245e-08  3.7011693216332599e-06  2.0732304371435963e-06  -1.0791283523639916e-05  -5.7264554773580064e-06  -1.0264951848674241e-05  -8.8871957069069382e-06  -1.0094786329486301e-05  -8.8985735526450787e-06  -6.8636060331042291e-06  -8.5368151643965898e-06  -5.5226245682805454e-06  -6.0616524870009309e-06  -6.2501424596544986e-06  -5.6450599654675511e-06  -4.9621342514089841e-06  -6.9930946046943717e-06  1.3966441184569021e-05  5.5753429680437160e-06  -1.0250316091492912e-05  -5.2581399411663035e-06  -7.6983426814249520e-06  -7.3848577235167471e-06  -8.4403970424701606e-06  -1.2121078175933803e-05  -2.3297552075936471e-05  1.1526540240265989e-05  -1.1200625123409310e-06  8.2278276542587533e-06  7.1394196504513514e-06  -1.7373254070397934e-05  -1.3606393196321141e-05  1.7162439969900355e-05  -1.8961307209378253e-06  8.0986815708387955e-06  9.8916393781929641e-06  -2.6071818516283308e-05  -2.2563427007624352e-05  -1.3827857612863302e-05  2.4577295553376876e-05  9.4646883703268922e-06  6.6828486605162705e-06  2.8116772043345382e-06  -1.8009796719773626e-06  1.5257294683775201e-05  1.4140778962767518e-05  1.6156924049809952e-05  1.5102861748768142e-05  1.5350669742513466e-05  1.5585757185387782e-05  1.6034748704224099e-05  1.3520111369903907e-05  9.2596399269994968e-06  9.9454727267677196e-06  1.2541345040747214e-05  1.2498997377281009e-05  1.2043749629035535e-05  1.1288880021380638e-05  1.1850411152749843e-05  1.3007329848809776e-05  1.2656978503334092e-05  1.0123215582407961e-05  6.9358728191715976e-06  7.8666808636289407e-06  1.1102944520461631e-05  1.0547873303459151e-05  7.6624934515410507e-06  8.3037249276258965e-06  1.0990638113587718e-05  1.1178439849576260e-05  1.0492343043237915e-05  1.0032734468828607e-05  1.0400635604191927e-05  1.1870236977959948e-05  1.1923929077601473e-05  1.1167794847223738e-05  1.0118799374361872e-05  8.8602907416716487e-06  9.1546806262247742e-06  1.0006689439927031e-05  1.1718359551392971e-05  9.5207344869335372e-06  4.7191553852827403e-06  5.0678717450611046e-06  6.3894521314122853e-06  7.2270102840972598e-06  8.9819985973506645e-06  9.3462347819184669e-06  8.4804706797304664e-06  7.2138908660393381e-06  7.2977546452973682e-06  8.7397053328148633e-06  8.5555640355061809e-06  6.6968706120789544e-06  6.8355009372825053e-06  8.8173110284010176e-06  8.7357930803356416e-06  7.6510767984287141e-06  6.1344449022809783e-06  5.8928110563210374e-06  1.3773983237508986e-06  -1.8713220245563937e-06  1.4465404461636243e-06  8.6679421224427326e-07  2.0562001490424096e-06  5.2506283687603626e-06  2.8480746813699910e-06  3.2717422460491094e-06  3.0477075580401245e-06  5.0756018803348340e-06  4.3312618195040321e-06  4.8285848458320301e-06  2.1752141035275893e-06  -1.7376688003122471e-06  2.2153938577035183e-07  1.9981361576304006e-06  1.9073899204738789e-06  1.1212633955583873e-06  1.5524953754000128e-06  1.0239716964100822e-06  -8.6911884966806891e-07  -1.8905111018729546e-06  -2.6541940637741958e-06  -1.7608939342751857e-06  4.5604435912541442e-08  -4.8744183577103621e-07  -1.1511264392659808e-06  -1.4578951690159941e-06  -2.7645468049276602e-06  -2.4970969312449947e-06  -8.2713000168685255e-06  -1.0860906622311531e-05  -3.9737596065893395e-06  -2.5716342278304868e-06  -3.2008408471977919e-06  -4.0334298701379304e-06  -6.4546307178363802e-06  -7.2684854095361311e-06  -7.3991675618628731e-06  -7.2300323515839466e-06  -5.8898733844042763e-06  -5.4959603614620591e-06  -6.8963290387960467e-06  -8.3797999805387190e-06  -6.9461390517435210e-06  -1.4665775687319028e-05  -1.9121279459752484e-05  -1.0477907750138832e-05  -8.8692209546371544e-06  -9.5532574960112855e-06  -1.0079138393752968e-05  -1.2774729894826255e-05  -1.3725838483712953e-05  -1.2914796346972474e-05  -1.2075148688343188e-05  -1.2113674243161268e-05  -1.2411007787159269e-05  -1.2283819653727001e-05  -1.2294645654293970e-05  -1.2738037446728976e-05  -1.3099483881806742e-05  -1.2684555974267569e-05  -1.3106252938696361e-05  -8.4104641753104871e-06  -6.0074356618734823e-06  2.5970494587589539e-05  6.9352811254585001e-06  1.2472351074541451e-05  1.0825010769074049e-05  1.3013651919151646e-05  1.3026682092457178e-05  1.2445906932426427e-05  1.2200681190740828e-05  1.2781743135093255e-05  1.0614931408326578e-05  1.7059546265186497e-05  2.0388791873641683e-05  1.0754208258867639e-05  8.8393647407078900e-06  1.0641789223714819e-05  9.9833031649900356e-06  1.0568865131871147e-05  1.2610661442606237e-05  1.2782965703771047e-05  1.1989935793303382e-05  1.1968732628522698e-05  1.1643891021262012e-05  1.1718450339500644e-05  1.2329903171403453e-05  1.1327753697208587e-05  8.5531770845931907e-06  6.3249466510809384e-06  6.1634420794979393e-06  4.9874871929590965e-06  9.2038430441113405e-06  1.3005007304911359e-05  7.0819714302748699e-06  1.1094776013372531e-05  1.3320637462399676e-05  7.5707990383039854e-06  8.6894296668111103e-06  8.5257147531183576e-06  7.3228999184249138e-06  7.7030002151701488e-06  6.5535794709678094e-06  5.1435151218983878e-06  6.4036523764719450e-06  8.9095202906120996e-06  8.1455010049834908e-06  8.4332438070569920e-06  8.3105160378895624e-06  4.1125647559242251e-06  7.3804689053411578e-06  8.7685120468302226e-06  4.9828239908685501e-06  4.7090699312535642e-06  5.2871585757947551e-06  2.7885053794155194e-05  1.2045415754283007e-04  -1.3555259585494111e-05  -8.9583336361422208e-05  -4.7062780147244004e-05  -1.4359454376960411e-04  -1.7566700696669592e-05  9.5395093526478436e-05  -7.6964890532354730e-05  1.8249375245082651e-05  1.7992739626846338e-04  9.6655394410206333e-05  1.2645865013385265e-04  -5.7008006996896071e-05  1.6082881290069492e-07  2.3926077486596144e-04  -1.1160474396545220e-04  -3.3895667633740672e-04  2.4177551349569609e-05  2.2137446257665104e-04  1.2183526286496160e-04  -1.9506535943806210e-05  3.9915945641331388e-07  1.9938009677155817e-05  1.0510942691329072e-05  1.4525077737726067e-05  -1.2045738392987346e-05  -3.5064263919763412e-05  -4.6058710853694266e-05  7.3237622376985288e-06  -1.2454071650668193e-05  -1.0553112990370031e-05  1.5023068121888557e-05  1.7877044586679304e-05  2.8024538308984314e-05  4.4514262602134746e-06  -1.8313673732145962e-05  5.5183580385063580e-06  1.0766640553896036e-05  -2.0437772006656733e-05  -2.0040841317801610e-05  -1.9594339617370643e-05  1.7556949733820424e-06  1.3057078426424991e-05  1.3615461149814331e-05  1.9164912348563161e-05  -9.0371717500249060e-06  1.1375147446927716e-05  -2.0587239592347072e-05  -3.8450514489375175e-05  -7.2790107057896700e-05  -1.1319998144397921e-04  -9.8553010656219508e-05  -1.4697092376144067e-04  5.2309464957899273e-05  -2.1950373031921208e-05  -8.0263789965334982e-05  -6.3726449470401185e-05  3.5588708365866058e-05  6.2242465335426175e-05  3.7334753719673024e-05  2.6694464762341082e-05  -1.6616275473319526e-06  1.4950981876639891e-06  -3.8366089360269950e-06  -1.7158971963802070e-05  -1.1809323043051863e-05  1.1377745889395712e-05  -2.9359943004735864e-05  1.6421390271204850e-04  3.7510612407890338e-02  8.5808964338000671e-02  1.6797511833486048e-01  2.2857786540246555e-01  4.1772009597435017e-01  2.8998252398192459e-01  1.2422346808014870e+00  5.4153237284193292e+00  6.6670120100058270e+00  7.6199912170346842e+00  1.0557001172188020e+01  1.1444070822060057e+01  8.5031350103429766e+00  9.3025371733044935e+00  6.7976918253956358e+00  4.9139416257027158e+00  1.4011628908897014e+00  4.3485742063324218e-01  3.6675653540688408e-01  2.5870319607225944e-01  1.5376487757819104e-01  9.2106774103032932e-02  3.9731074666615560e-02  -1.8664872547856080e-04  1.9900474204754846e-04  -4.5360192036064743e-05  -3.0857198052210658e-05  3.9143312807529595e-05  -1.4681235657424307e-05  -6.2766606973208567e-05  -8.1773924456484824e-05  -1.0858874935425101e-04  -3.9449198944552057e-05  -1.3344638943470520e-04  -6.7900904153732168e-08  2.0086601609096403e-05  -1.0064870568287986e-05  -3.7184865391607036e-05  -4.3530973020757701e-05  -1.1103647374659385e-05  9.8528176505094533e-06  -1.4710766400594312e-05  -1.3376802102711812e-05  -2.1036746537246697e-05  -2.2997435400740083e-05  -1.8562500782236035e-05  4.2944671647777846e-06  4.5751952107125792e-06  -2.0278291271451976e-05  -1.7404417197779356e-05  -2.4887598320241592e-05  -7.2084624626948644e-06  2.0394613501697095e-05  3.3222301535193856e-05  3.6760781348925075e-06  -2.5339066246347654e-05  -2.2261839790511104e-05  -4.0081092337839812e-05  -5.7174637520036889e-05  -4.8911753748291199e-05  1.4158897352773077e-05  5.4716371914009256e-05  6.7715969107226309e-05  6.8471024411347465e-07  -4.6015282134276085e-05  -4.2979517492947890e-05  -5.0091753052216469e-05  -3.6696455098247542e-05  -8.8145208313871761e-06  4.9510817544056919e-05  5.3241333178568137e-05  2.1407066906535209e-07  -7.8297769766353563e-05  2.1196836684013315e-04  1.6701779088978199e-04  -2.2052801598158178e-04  -1.9569356294274205e-04  -2.5581307698275017e-04  -1.3464847752832208e-04  -8.0849910708342599e-05  -1.0022477442989465e-04  -5.6647809287032193e-05  -8.6074475281906716e-05  -1.3067595186477628e-04  -8.5607951456758414e-05  4.1954024338843852e-05  2.6290228886563973e-05  -6.8107995956910304e-05  -4.6801963901123999e-05  -7.2199754744570503e-05  -4.6338118325257167e-05  1.6193754763491892e-05  2.0691990140666911e-05  -2.2625586371260095e-05  1.3441352719857637e-05  -7.5115785697005596e-06  -4.8697406435962497e-06  -6.6814911140610567e-06  -6.5799238274286440e-06  -4.3958428780890742e-06  -3.4664456254661449e-06  -3.1050932508053691e-06  -3.1076648820281386e-06  -3.7399196578446689e-06  -3.7682334367969991e-06  -3.3912108622421409e-06  -3.0360723646031681e-06  -3.9128409645775045e-06  -5.1879351544702856e-06  -3.6574682618702904e-06  -2.3685473341002297e-06  -3.3400287911252378e-06  -4.1673816250233398e-06  -4.3930329456517983e-06  -3.4039882818410915e-06  -3.5915482834438010e-06  -2.1513539888474279e-06  -4.9032943096525706e-07  -3.2374953743982358e-06  -3.6108355650516702e-06  -2.3769337891196689e-06  1.7055407859509110e-06  1.2387352763560592e-07  -3.3980838997357996e-06  -3.6042947948577694e-06  -5.1290210757474700e-06  -4.4263551758772790e-06  -3.8635068044688303e-06  -2.3307596468006978e-06  -1.7111650983830745e-06  -1.5381873183791388e-06  -1.6503335256977661e-06  -9.1436787655923299e-07  -8.4975678114066436e-07  -2.3116973870732321e-06  -2.4551367401320879e-06  -1.9243906156790884e-06  -1.5587644168063238e-06  -1.0511711613887310e-06  -4.5451215343542648e-07  -8.1465451919675653e-07  -1.2155381048518153e-07  -1.3595240929903818e-07  -8.5913359602812791e-07  -2.7246836614802325e-07  -3.7016299533433008e-07  -8.9588117584786688e-09  2.1622142543772513e-07  -6.0946877311962552e-08  -8.9093428898800255e-10  1.7532164975469784e-07  4.5391445165490392e-07  -3.4660222635893374e-09  2.4148711485360477e-06  5.2467556760108946e-06  2.4792657966970282e-06  -1.8206713417737462e-07  3.2391819177008345e-07  1.5459782691779699e-07  2.4749724802056038e-06  3.6912387035383130e-06  8.5696024059087641e-07  9.0203659365008707e-07  3.7938250192491770e-07  2.4093825841430098e-06  4.6852068767029954e-06  1.4441654805104072e-06  3.8305464350949465e-06  9.5407064089256718e-06  6.9057646604128135e-06  2.0892592157373443e-06  1.7654759768346993e-06  2.3489768156170814e-06  2.9558334886579791e-06  3.8524942600872138e-06  3.9550654141672676e-06  4.1850450236151154e-06  5.0867175967065718e-06  5.9019615564999293e-06  6.3601154384975173e-06  7.2970178441024441e-06  9.6887095654402801e-06  1.0471401087417328e-05  7.3506548094079307e-06  5.1731832327993840e-06  5.8403406462846294e-06  6.2328710053040448e-06  5.6472108650786350e-06  4.3230961513394242e-06  4.8378918662543401e-06  8.7659080858528036e-06  1.1478345068866174e-05  1.5060121530155603e-05  1.6222120633691562e-05  2.1501887992457933e-05  2.4761427011523419e-05  2.2496594756729468e-05  1.7544088214914916e-05  6.9582318446368769e-06  1.0201722838213167e-05  1.9003487621757193e-05  2.4996753584152751e-05  2.0854650761966569e-05  7.4801317961771335e-06  1.2056216656700170e-05  2.5062669247946518e-05  2.7079119191974602e-05  2.9081412701778820e-05  2.3071299421368660e-05  8.2478218856547291e-06  1.3387199615594215e-05  3.0988353508041954e-05  2.1774699318138220e-05  1.7363378315000312e-05  2.0007364965741256e-05  1.7074307041879954e-05  2.8711124181595993e-05  3.6445376992049436e-05  2.2939545220158052e-05  1.9561525384354685e-05  2.1913819584736421e-05  1.9321144445739454e-05  3.4245790676884488e-05  4.2034527503735453e-05  3.0466740525145117e-05  1.1082528829347073e-05  1.9257075215626867e-05  4.1334690904994777e-05  2.9290179527584377e-05  1.8027350116771735e-05  3.7963616772454306e-05  3.0249643509259955e-05  2.1208872039537316e-05  4.3984952455735501e-05  3.1106728931192760e-05  2.5401765931644751e-05  2.9330768358749962e-05  3.1103750727041333e-05  3.8045715575243685e-05  2.2695081478499815e-05  1.5171191567892179e-05  3.8822330391894563e-05  4.5194762916796870e-05  2.1162378041673864e-05  1.8810336483756539e-05  2.5133666356616449e-05  3.1551267917223918e-05  2.6868149096925389e-05  1.6554854951714080e-05  2.5839356278619611e-05  2.0159368948460821e-05  1.6869366704170173e-05  2.8014630903946077e-05  2.5166543641248215e-05  2.6405852701395047e-05  2.8496566952552478e-05  3.0674514554276457e-05  3.3360138895691890e-05  3.6429065611502301e-05  3.8426465839288342e-05  3.9747740658447819e-05  4.1481373968051850e-05  4.2837020133877140e-05  4.4352745498394467e-05  4.6506411719257664e-05  4.7916248601611810e-05  4.9622899327794913e-05  5.2064773796528583e-05  5.3513067307048472e-05  5.5257305969486655e-05  5.7754459017164850e-05  5.9104083184721849e-05  6.2358721442628323e-05  6.6954896063908819e-05  6.1373922252337646e-05  4.7056570012860255e-05  4.9810200859888522e-05  7.6989688720638955e-05  1.0555627187300033e-04  1.1769056882510827e-04  1.1728754632593240e-04  1.1529362485494843e-04  1.0814784256478473e-04  8.3649313564045400e-05  1.0775353510115131e-04  1.0793484207008495e-04  5.7553818963304130e-05  7.5299656720140723e-05  9.3982100464253123e-05  8.5682433016882791e-05  8.5351625936433669e-05  8.1182785154501619e-05  7.3857461870377442e-05  7.1357780675783514e-05  7.0890858739720738e-05  6.1423851240015865e-05  3.6058690004125024e-05  8.1478048091826797e-06  7.5200002089029015e-06  1.8065497900883433e-05  8.8499844558398179e-06  3.0613112269523794e-06  5.2300441951160759e-06  -1.4230051721604616e-05  -4.4313343217532358e-05  -5.1591361895359147e-05  -3.8732826351318266e-05  -2.9395988052519023e-05  -2.6657601827804361e-05  -2.7734679118339606e-05  -3.3786038849432255e-05  -4.0837521540090339e-05  -4.5234987365172520e-05  -4.7148902453639131e-05  -4.7180587126295016e-05  -4.7269585681249068e-05  -4.7991187061697107e-05  -4.7950715584910134e-05  -4.7401798399922037e-05  -4.7260598741113124e-05  -4.7001732531358237e-05  -4.5974923108454765e-05  -4.5236228940319195e-05  -4.4914742352163469e-05  -5.0629124568974946e-05  -6.0286702573624758e-05  -5.8409949615073007e-05  -4.7561931539340431e-05  -4.2289199215310468e-05  -3.7159543908129007e-05  -3.5918786026392606e-05  -4.5716789880661476e-05  -4.4825225775113820e-05  -2.5305083939160292e-05  -1.3642072062067033e-05  -2.0535106368004498e-05  -2.9683349329252879e-05  -2.9594937235594477e-05  -2.3781939370457049e-05  -1.9652994808717083e-05  -1.8846666150425585e-05  -1.7810344105273248e-05  -1.6375807470632508e-05  -1.6914981851663962e-05  -1.7391081738777283e-05  -1.6149727579053020e-05  -1.4801682861100704e-05  -1.3769234859800099e-05  -1.3569905883967914e-05  -1.3161318664139140e-05  -9.6915285694327814e-06  -8.1163099023301059e-06  -1.3679297010940182e-05  -1.7559361787720519e-05  -1.2854298576567366e-05  -7.8351077181547563e-06  -7.8247953444721938e-06  -8.4769824993419782e-06  -7.8650157191365299e-06  -7.2341081270907903e-06  -6.9334449292048856e-06  -7.5548414911846683e-06  5.7031490757514155e-06  2.7643341271424711e-06  -1.2042474393764717e-05  -3.0010261801086140e-06  -5.8937645467996272e-06  -4.1474104766395689e-06  -5.9957360332166081e-06  1.0410993702775638e-05  5.9731239220624312e-06  -5.6279616753274411e-06  -2.5776380529583848e-06  -2.8402258167215259e-06  -2.9496289384628923e-06  -2.4168011598137449e-06  -1.7315368384024392e-06  -2.4362339628484558e-06  -3.7707117834592721e-06  -5.1112230430802573e-06  -5.5223802443128954e-06  -3.2897621992353769e-06  -1.5610771290390090e-06  7.2097490273317598e-06  3.7709420955088844e-06  -6.4988768587150217e-07  7.5057294886102951e-06  2.3858967153794910e-06  -2.0354071944060757e-06  -7.5629556496913091e-07  -8.5541605945406188e-07  -1.6866618057547997e-06  4.8737250540177047e-06  1.5716881417821603e-05  7.9327437784409765e-05  -8.0460934055549282e-05  -2.5931657901981835e-05  1.3002098830064651e-04  1.4214894186468711e-04  -4.7288952638047384e-05  -1.8577084515220693e-04  2.8504326488484550e-05  1.7644927095655815e-04  7.6927592739028518e-05  5.9907278013620223e-05  1.2364726647950546e-04  1.4402872655646745e-04  1.2021173614958586e-04  1.4264605939946280e-04  1.9203238028766290e-04  2.1646025333162035e-04  -1.0339972274479598e-04  -4.1709667229127773e-05  2.8550580450279107e-04  -9.8642692776646984e-05  -6.2857950774444375e-05  -2.1124120825443115e-05  -2.2054934419116433e-05  -1.07498368