<?xml version="1.0"?>
<VTKFile type="UnstructuredGrid"  version="0.1"  >
<UnstructuredGrid>
<Piece  NumberOfPoints="25087" NumberOfCells="49212">
<Points>
<DataArray  type="Float64"  NumberOfComponents="3"  format="ascii">0 0 0  0.75 0 0  0.85 0 0  1.8 0 0  1.8 0.1 0  0 0.1 0  0.009939587277681541 0 0  0.01987917455536239 0 0  0.02981876183304314 0 0  0.03975834911072389 0 0  0.04969793638840794 0 0  0.05963752366609719 0 0  0.06957711094378713 0 0  0.07951669822147707 0 0  0.08945628549916627 0 0  0.09939587277684642 0 0  0.109335460054518 0 0  0.1192750473321896 0 0  0.1292146346098671 0 0  0.1391542218875571 0 0  0.149093809165247 0 0  0.1590333964429369 0 0  0.1689729837206268 0 0  0.1789125709983168 0 0  0.1888521582760067 0 0  0.1987917455536966 0 0  0.2087313328313865 0 0  0.2186709201090765 0 0  0.2286105073867664 0 0  0.2385500946644563 0 0  0.2484896819421462 0 0  0.2584292692198362 0 0  0.2683688564975261 0 0  0.278308443775216 0 0  0.288248031052906 0 0  0.2981876183305959 0 0  0.3081272056082858 0 0  0.3180667928859758 0 0  0.3280063801636657 0 0  0.3379459674413556 0 0  0.3478855547190456 0 0  0.3578251419967355 0 0  0.3677647292744254 0 0  0.3777043165521413 0 0  0.3876439038298989 0 0  0.3975834911076623 0 0  0.4075230783854257 0 0  0.4174626656631892 0 0  0.4274022529409527 0 0  0.4373418402187161 0 0  0.4472814274964795 0 0  0.457221014774243 0 0  0.4671606020520065 0 0  0.4771001893297699 0 0  0.4870397766075334 0 0  0.4969793638852968 0 0  0.5067309463239997 0 0  0.5157711254978494 0 0  0.5241202977806269 0 0  0.5318312802296193 0 0  0.5389528546926976 0 0  0.5455300745089914 0 0  0.5516045497071054 0 0  0.5572147069557104 0 0  0.562396037778403 0 0  0.5671813217260944 0 0  0.5716008310492434 0 0  0.5756825257083404 0 0  0.5794522250791264 0 0  0.582933778518776 0 0  0.5861492110966979 0 0  0.5891188647964261 0 0  0.5918615250678128 0 0  0.5943945443357254 0 0  0.5967339452616621 0 0  0.5988945293659402 0 0  0.6009061908335473 0 0  0.6028941082891001 0 0  0.6048820257446528 0 0  0.6068699432002055 0 0  0.6088578606557582 0 0  0.6108457781113108 0 0  0.6128336955668636 0 0  0.6148216130224162 0 0  0.616809530477969 0 0  0.6187974479335216 0 0  0.6207853653890744 0 0  0.6227732828446271 0 0  0.6247612003001798 0 0  0.6267491177557325 0 0  0.6287370352112852 0 0  0.6307249526668378 0 0  0.6327128701223905 0 0  0.6347007875779432 0 0  0.6366887050334959 0 0  0.6386766224890487 0 0  0.6406645399446014 0 0  0.642652457400154 0 0  0.6446403748557068 0 0  0.6466282923112595 0 0  0.6486162097668122 0 0  0.6506041272223648 0 0  0.6525920446779175 0 0  0.6545799621334703 0 0  0.656567879589023 0 0  0.6585557970445757 0 0  0.6605437145001284 0 0  0.6625316319556811 0 0  0.6645195494112337 0 0  0.6665074668667865 0 0  0.6684953843223391 0 0  0.6704833017778919 0 0  0.6724712192334446 0 0  0.6744591366889973 0 0  0.67644705414455 0 0  0.6784349716001027 0 0  0.6804228890556554 0 0  0.6824108065112081 0 0  0.6843987239667607 0 0  0.6863866414223134 0 0  0.6883745588778661 0 0  0.6903624763334189 0 0  0.6923503937889716 0 0  0.6943383112445243 0 0  0.696326228700077 0 0  0.6983141461556297 0 0  0.7003020636111823 0 0  0.7022899810667351 0 0  0.7042778985222878 0 0  0.7062658159778404 0 0  0.7082537334333932 0 0  0.7102416508889459 0 0  0.7122295683444986 0 0  0.7142174858000513 0 0  0.716205403255604 0 0  0.7181933207111566 0 0  0.7201812381667094 0 0  0.722169155622262 0 0  0.7241570730778149 0 0  0.7261449905333676 0 0  0.7281329079889202 0 0  0.7301208254444729 0 0  0.7321087429000257 0 0  0.7340966603555783 0 0  0.7360845778111311 0 0  0.7380724952666838 0 0  0.7400604127222364 0 0  0.7420483301777892 0 0  0.7440362476333419 0 0  0.7460241650888946 0 0  0.7480120825444474 0 0  0.8519928290587546 0 0  0.8539856581175093 0 0  0.855978487176264 0 0  0.8579713162350187 0 0  0.8599641452937733 0 0  0.8619569743525279 0 0  0.8639498034112826 0 0  0.8659426324700373 0 0  0.867935461528792 0 0  0.8699282905875466 0 0  0.8719211196463013 0 0  0.873913948705056 0 0  0.8759067777638107 0 0  0.8778996068225653 0 0  0.8798924358813199 0 0  0.8818852649400746 0 0  0.8838780939988293 0 0  0.885870923057584 0 0  0.8878637521163386 0 0  0.8898565811750933 0 0  0.8918494102338479 0 0  0.8938422392926026 0 0  0.8958350683513573 0 0  0.8978278974101119 0 0  0.8998207264688666 0 0  0.9018135555276212 0 0  0.903806384586376 0 0  0.9057992136451306 0 0  0.9077920427038852 0 0  0.9097848717626399 0 0  0.9117777008213945 0 0  0.9137705298801493 0 0  0.9157633589389039 0 0  0.9177561879976586 0 0  0.9197490170564132 0 0  0.921741846115168 0 0  0.9237346751739226 0 0  0.9257275042326772 0 0  0.9277203332914319 0 0  0.9297131623501866 0 0  0.9317059914089413 0 0  0.9336988204676959 0 0  0.9356916495264506 0 0  0.9376844785852052 0 0  0.93967730764396 0 0  0.9416701367027146 0 0  0.9436629657614692 0 0  0.9456557948202239 0 0  0.9476486238789785 0 0  0.9496414529377333 0 0  0.9516342819964879 0 0  0.9536271110552426 0 0  0.9556199401139972 0 0  0.957612769172752 0 0  0.9596055982315066 0 0  0.9615984272902612 0 0  0.9635912563490159 0 0  0.9655840854077706 0 0  0.9675769144665253 0 0  0.9695697435252775 0 0  0.9715625725840263 0 0  0.9735554016427752 0 0  0.9755482307015241 0 0  0.9775410597602689 0 0  0.9795338888190119 0 0  0.9815267178777549 0 0  0.9835195469364979 0 0  0.9855123759952465 0 0  0.9875052050539954 0 0  0.9894980341127442 0 0  0.9914908631714945 0 0  0.9934836922302491 0 0  0.9954765212890038 0 0  0.9974693503477584 0 0  0.9994621794065132 0 0  1.001455008465268 0 0  1.003447837524022 0 0  1.005440666582777 0 0  1.007433495641532 0 0  1.009426324700286 0 0  1.011419153759041 0 0  1.013411982817796 0 0  1.01540481187655 0 0  1.017397640935305 0 0  1.01939046999406 0 0  1.021383299052814 0 0  1.023376128111569 0 0  1.025368957170324 0 0  1.027361786229078 0 0  1.029354615287833 0 0  1.031347444346588 0 0  1.033340273405342 0 0  1.035333102464097 0 0  1.037325931522852 0 0  1.039318760581606 0 0  1.041311589640361 0 0  1.043304418699116 0 0  1.04529724775787 0 0  1.047290076816625 0 0  1.04928290587538 0 0  1.051275734934134 0 0  1.053268563992889 0 0  1.055261393051644 0 0  1.057254222110398 0 0  1.059247051169153 0 0  1.061239880227908 0 0  1.063232709286662 0 0  1.065225538345417 0 0  1.067218367404172 0 0  1.069211196462926 0 0  1.071204025521681 0 0  1.073196854580436 0 0  1.07518968363919 0 0  1.077182512697945 0 0  1.0791753417567 0 0  1.081168170815454 0 0  1.083160999874209 0 0  1.085153828932964 0 0  1.087146657991718 0 0  1.089139487050473 0 0  1.091132316109228 0 0  1.093125145167982 0 0  1.095117974226737 0 0  1.097110803285491 0 0  1.099103632344246 0 0  1.101096461403001 0 0  1.103089290461756 0 0  1.10508211952051 0 0  1.107074948579265 0 0  1.10906777763802 0 0  1.111060606696774 0 0  1.113053435755529 0 0  1.115046264814284 0 0  1.117039093873038 0 0  1.119031922931793 0 0  1.121024751990547 0 0  1.123017581049302 0 0  1.125010410108057 0 0  1.127003239166811 0 0  1.128996068225566 0 0  1.130988897284321 0 0  1.132981726343075 0 0  1.13497455540183 0 0  1.136967384460585 0 0  1.13896021351934 0 0  1.140953042578094 0 0  1.142945871636849 0 0  1.144938700695604 0 0  1.146931529754358 0 0  1.148924358813113 0 0  1.150917187871868 0 0  1.152910016930622 0 0  1.154902845989377 0 0  1.156895675048131 0 0  1.158888504106886 0 0  1.160881333165641 0 0  1.162874162224395 0 0  1.16486699128315 0 0  1.166859820341905 0 0  1.168852649400659 0 0  1.170845478459414 0 0  1.172838307518169 0 0  1.174831136576924 0 0  1.176823965635678 0 0  1.178816794694433 0 0  1.180809623753187 0 0  1.182802452811942 0 0  1.184795281870697 0 0  1.186788110929451 0 0  1.188780939988206 0 0  1.190773769046961 0 0  1.192766598105715 0 0  1.19475942716447 0 0  1.196752256223225 0 0  1.198745085281979 0 0  1.200748912638162 0 0  1.20288546443348 0 0  1.205199299294777 0 0  1.207705128061463 0 0  1.2104188818489 0 0  1.213357812369785 0 0  1.216540604460539 0 0  1.219987493828263 0 0  1.223720393159986 0 0  1.227763034966436 0 0  1.232141120812665 0 0  1.23688248446048 0 0  1.242017269350748 0 0  1.247578120948599 0 0  1.253600390288261 0 0  1.260122366103743 0 0  1.267185511970863 0 0  1.274834732580962 0 0  1.283118657571247 0 0  1.292089952249604 0 0  1.30179273530951 0 0  1.311756880603283 0 0  1.321721025897057 0 0  1.33168517119083 0 0  1.341649316484614 0 0  1.351613461778471 0 0  1.36157760707236 0 0  1.371541752366183 0 0  1.381505897659957 0 0  1.391470042953772 0 0  1.401434188247646 0 0  1.411398333541451 0 0  1.421362478835224 0 0  1.431326624129069 0 0  1.44129076942293 0 0  1.451254914716717 0 0  1.461219060010506 0 0  1.471183205304368 0 0  1.481147350598211 0 0  1.491111495891984 0 0  1.501075641185789 0 0  1.511039786479664 0 0  1.521003931773478 0 0  1.530968077067251 0 0  1.540932222361076 0 0  1.550896367654947 0 0  1.560860512948745 0 0  1.570824658242518 0 0  1.580788803536311 0 0  1.590752948830143 0 0  1.600717094123925 0 0  1.610681239417698 0 0  1.620645384711508 0 0  1.630609530005332 0 0  1.640573675299105 0 0  1.650537820592878 0 0  1.660501965886704 0 0  1.670466111180512 0 0  1.680430256474285 0 0  1.690394401768069 0 0  1.7003585470619 0 0  1.710322692355692 0 0  1.720286837649466 0 0  1.730250982943265 0 0  1.740215128237097 0 0  1.750179273530885 0 0  1.760143418824716 0 0  1.770107564118548 0 0  1.780071709412366 0 0  1.790035854706168 0 0  1.8 0.0001 0  1.8 0.00023 0  1.8 0.000399 0  1.8 0.0006187 0  1.8 0.0009043100000000001 0  1.8 0.001275603 0  1.8 0.0017582839 0  1.8 0.01140662711998408 0  1.8 0.02105497033995717 0  1.8 0.03070331355992841 0  1.8 0.04035165677989965 0  1.8 0.0499999999998722 0  1.8 0.05964834321989785 0  1.8 0.06929668643992376 0  1.8 0.07894502965995151 0  1.8 0.08859337287997926 0  1.8 0.0982417161 0  1.8 0.09872439700000001 0  1.8 0.09909569 0  1.8 0.09938130000000001 0  1.8 0.09960100000000001 0  1.8 0.09977000000000001 0  1.8 0.0999 0  1.790017325432064 0.1 0  1.780034650
[...]
<PointData  Scalars="Reynolds"> 
<DataArray  type="Float64"  Name="Reynolds"  format="ascii">2.5443490517749697e-04  3.9140996085425988e-04  -1.0799908799169148e-04  -1.6595233427366331e-02  1.7707594084319437e-02  -4.4105303150281924e-04  1.3677165261553580e-04  -1.3499929811423410e-04  -2.2227258425351970e-04  -2.5670229897777779e-04  -2.3589805988891082e-04  -3.1612065201934490e-04  -1.7239643357269718e-04  1.4947110024114831e-04  1.4184509794987459e-04  -2.4708190232988129e-04  -2.6382050121373128e-04  -1.4507394225907522e-04  -8.2897923203793174e-05  2.6996435529936878e-06  -3.1105255477837319e-05  3.2189641117442114e-05  -1.2999412293882148e-04  -1.2840446122450307e-04  -1.6678325223936402e-04  -2.1076700837008048e-04  -1.4039827775234830e-04  -2.3632317938485784e-05  -6.5213537264301923e-05  -1.9104733852961112e-04  -4.1489365693617543e-04  -2.0477421078795549e-04  -6.0521321722223310e-05  1.3705452187413715e-05  1.4007999241530235e-04  -1.9687009193029327e-04  -2.6625062482529680e-04  -1.8240776467886102e-04  -3.3324915574118808e-06  -4.2241414444320596e-05  -6.0245429727673683e-05  -1.8245616797235367e-04  -2.8386757828764621e-04  -8.6239880084533759e-05  4.2513054120971252e-05  -9.7987011057653283e-05  -2.8324457930242925e-05  -4.6072772065090457e-05  -2.4699561502634828e-04  -1.9450452097692823e-04  -3.3906295782660731e-04  -1.8710593174135076e-04  -1.7332532902564540e-04  -2.8897000224195862e-04  -1.0026130553179855e-04  -4.3678830469212843e-04  -4.5063817326788643e-04  -2.1724765315455231e-04  -2.6363615824563094e-04  -3.7572690926443501e-04  -2.4078923138452131e-04  7.7382751136979857e-05  -5.1709748655241905e-06  -5.0458927596530156e-04  1.3895437210572126e-04  1.5456618616822509e-04  -2.5419630566630167e-04  -9.6660125485798008e-05  -2.6325048670820838e-04  -2.3908107070291060e-04  -2.1609198094441350e-04  2.6402684944313551e-04  1.6136466392272663e-04  -3.3050961917106266e-04  -2.1125261684943288e-04  -9.5581002388502108e-05  -7.0093273083944856e-05  -1.1954532431017699e-04  -6.6962112491201359e-05  -6.2233654248223399e-05  -1.3736604491903118e-04  3.1105529269304718e-04  1.8580446832374420e-04  -4.5474853224466310e-04  -3.8869893888931703e-04  -3.2513679873411890e-04  -3.6757731411147994e-04  -2.0030509116106138e-04  -1.0688006078686397e-04  -1.5973956349257809e-04  -1.6338662280409956e-04  -2.6740768396048677e-04  -2.7432650500013880e-04  -1.6741531211497733e-04  -2.9919319190469077e-04  -5.4164464882037197e-04  -4.5350599101032788e-04  4.7765029433189792e-04  1.5122285264383269e-04  -5.7289162096071618e-04  -2.2615418095300408e-04  -4.3056241252712477e-04  -4.3515317264070016e-04  -2.7667650965296507e-04  -4.6164046768393680e-04  -8.4904767785468874e-04  -5.0733390130145567e-04  -4.4239391167266289e-04  6.7794777435065546e-04  -4.4794375339557834e-05  2.7142543920174382e-04  2.3330596547067439e-04  -1.0944183850546325e-03  -7.2767120707971518e-04  -1.0922214060733577e-03  -9.3005131957923687e-04  -1.0658840696839895e-03  -8.5781154837846502e-04  -7.3328730150012034e-04  -8.9718704529899343e-04  -6.1216482695856098e-04  -6.1699323342667375e-04  -6.6964069332008287e-04  -6.7847340493074851e-04  -6.5404073564423958e-04  -9.7325354306217161e-04  8.8947343705897939e-04  3.4973835652130623e-04  -1.6152739345097573e-03  -1.0343140492890153e-03  -1.1660221911251212e-03  -8.5442949826469358e-04  -6.9905119581424992e-04  -1.1878839797832713e-03  -2.3282708471740994e-03  1.0600906830582259e-03  -1.8771436548127582e-04  5.4288428629339176e-04  6.3842105476980904e-04  -1.9305072658428824e-03  -1.4903070707402025e-03  1.5862020503301269e-03  -1.5937509919614271e-04  7.4086102337841909e-04  9.7978049160961801e-04  -2.6872397932161353e-03  -2.3045471636626742e-03  -1.4055340799625665e-03  2.4774699877259179e-03  8.8635729326603488e-04  6.7665680138263634e-04  2.9077133719451932e-04  -1.9392697753153017e-04  1.5411714513757513e-03  1.4146479363626081e-03  1.6353418820346493e-03  1.5251202109027452e-03  1.5509062041452852e-03  1.5663730173566877e-03  1.6121638493004845e-03  1.3735808649860705e-03  9.4859514495726288e-04  1.0071794930341356e-03  1.2645513494306433e-03  1.2342628925329560e-03  1.1620465751042491e-03  1.1272882149126816e-03  1.1910228138186159e-03  1.2309410816865802e-03  1.1654713645245388e-03  1.0383595809874387e-03  8.6374774162067134e-04  9.5626409459457899e-04  1.2203686721908363e-03  1.0911503740112637e-03  7.8130482786123087e-04  8.5797843751047437e-04  1.1187890676567409e-03  1.1339106375566981e-03  1.0391940393332407e-03  1.0003607862544210e-03  9.9025431452925646e-04  1.0100045764636885e-03  1.0879055503612933e-03  1.0001173689721363e-03  7.6420172127421987e-04  8.1325763229578621e-04  9.8740711479140602e-04  9.5817950315288077e-04  9.4352978484330571e-04  9.3028098652805534e-04  7.7510321352011074e-04  7.5942875789169822e-04  8.7894950531326060e-04  8.7838719653017538e-04  8.7036402733650273e-04  9.2057125364425720e-04  8.4557591607767964e-04  6.7795232773104066e-04  6.9278271323427283e-04  8.2659374761330420e-04  8.0400949152705848e-04  6.7529692037294553e-04  6.7604573273661846e-04  7.5890803410794507e-04  7.6229573512911141e-04  6.9062569498891889e-04  5.8556230465569062e-04  6.5143581216455958e-04  3.1166207506417605e-04  1.0798614517350936e-04  3.3725963625055725e-04  2.0496324888988771e-04  3.0199752498858589e-04  5.1002781907823517e-04  3.7183511239145893e-04  4.5863698690859413e-04  3.8733977180611441e-04  6.1327750932677213e-04  3.1240626001964849e-04  6.0483435103286375e-04  4.0466239154439036e-04  1.7119866317994559e-04  2.7423593669727341e-04  3.0404915415608409e-04  2.3847847898994276e-04  1.4764271937882321e-04  8.7317313783696798e-05  -2.9022535477843278e-06  -6.1489328969045371e-05  -4.9424917332521826e-05  -7.5757362721864317e-05  -1.8057574253532981e-04  -2.4210731910521407e-04  -2.0206923193545799e-04  -1.6750700278228748e-04  -2.5413162187652114e-04  -3.8408920691376949e-04  -2.7627124238487641e-04  -8.5917685054076229e-04  -1.1168646771790194e-03  -4.9922450662283195e-04  -4.5738554545026334e-04  -4.8837320833699485e-04  -5.4059582467371337e-04  -6.7056919513411620e-04  -7.2179926643583115e-04  -7.9717052454498605e-04  -7.5565168092965520e-04  -6.5330660986267998e-04  -7.4473836097293643e-04  -8.9055839981453495e-04  -9.8311715767238051e-04  -8.0214778227130201e-04  -1.5584356648800572e-03  -1.9361311143969255e-03  -1.0285828302437712e-03  -8.9163510519369696e-04  -1.0044987355729991e-03  -1.0656223021662992e-03  -1.1754851285935104e-03  -1.1853392966593831e-03  -1.2039402829119212e-03  -1.2252552348320674e-03  -1.2349455112332106e-03  -1.2457675445982812e-03  -1.2449744539389186e-03  -1.2477830857182404e-03  -1.2722388834804682e-03  -1.3005433062344279e-03  -1.2742853016077197e-03  -1.3398923510074443e-03  -8.8638653089382290e-04  -6.5731037433177286e-04  2.5491441254054631e-03  6.6516384508432476e-04  1.2291463582353092e-03  1.0381280751904128e-03  1.2494784277457334e-03  1.2864582843274061e-03  1.2698439510837483e-03  1.2434222827609116e-03  1.2631014510196843e-03  1.0421894497994217e-03  1.6714664585239770e-03  2.0316551131336971e-03  1.1067364440943792e-03  8.8338899447869040e-04  1.0597368190243730e-03  1.0346866212318844e-03  1.0093301323650973e-03  1.0469628679243956e-03  1.0810269389920999e-03  1.0559731972436949e-03  1.0330866232218176e-03  1.0110273373963217e-03  9.9192806527684209e-04  9.7618374201554519e-04  9.4870008709544459e-04  9.0215209252949235e-04  8.8550169394339755e-04  9.2795776894212003e-04  7.3767253632904051e-04  1.0153131055692279e-03  1.3247293935091230e-03  7.3099891126723036e-04  9.9072189868485870e-04  1.2909153087789053e-03  7.4122649078463016e-04  6.7872953270373994e-04  7.1140839968918145e-04  5.8800922222868751e-04  5.5954791373901303e-04  5.4672387628733950e-04  5.2952298219148205e-04  5.4288200333503425e-04  5.9460095390737131e-04  5.2860640931579701e-04  7.0723716714157954e-04  8.5020858018489067e-04  4.7611737659134060e-04  5.8991728741087854e-04  7.7954961191218177e-04  4.7734970850631467e-04  4.0870958187402487e-04  3.6109477582651844e-04  4.5171557584836850e-04  9.3527488786647266e-04  1.0427667697671472e-05  -6.8643631278441795e-04  -3.0499041035573772e-04  -8.1935921569606190e-04  -1.2731892273700119e-04  5.8824441413314501e-04  -3.1444921547652558e-04  1.0842289374274611e-05  8.6788236319885917e-04  4.2996066341572417e-04  4.6791838117387220e-04  -9.6730192551339542e-05  7.0661142069836035e-06  6.6975655094908050e-04  -2.5822482883356855e-04  -6.1114710239426227e-04  4.5930380258032984e-05  4.7699656586714729e-04  3.6746050924418291e-04  -2.9313242408381265e-04  -1.3850094409194943e-04  3.0698453620487705e-04  1.0844941785747082e-04  2.3294646401101013e-04  -1.5190507529977412e-04  -6.2150675067054609e-04  -7.6910436581286985e-04  2.1493549310789919e-04  -1.1190686858123643e-04  -1.6316102416707662e-04  3.9769597862273091e-04  1.2612601393893671e-04  3.8036477074396031e-04  -1.9908954163703072e-04  -6.7698116763315855e-04  6.1585908194303494e-05  4.2441940138507085e-05  -3.6049308259100736e-04  -4.3679430212001456e-04  -4.0774556022683849e-04  5.5473691352586801e-05  1.9948090824608954e-04  2.2602072961537127e-04  3.5516239003815278e-04  -1.6742939881499982e-04  1.2256206060891063e-04  1.1238108836268809e-04  -2.7735558868393032e-05  -1.5677034350944475e-05  -1.9928211193769417e-04  -9.0876490974611094e-05  -3.8686363601443479e-04  1.9912809517158214e-04  1.2819579149369649e-04  -1.1072536151209487e-04  -2.9691057490139402e-04  -4.0207931561780848e-04  -8.7266048910151090e-05  -1.4048086102979703e-04  -8.5663322838499108e-05  2.3963108686771972e-05  -2.5903351899302174e-05  -3.4677859506859816e-05  -2.0112605400635214e-04  -1.8871197682776032e-04  1.2812808128766158e-04  -7.8473376027784504e-04  2.8226595332162779e-03  7.4806768858185235e-01  1.7407195614508799e+00  3.3291802989277448e+00  4.7758069051621490e+00  7.4393207243932009e+00  9.6564264379484879e+00  1.6279917613638457e+01  8.2699508252636136e+01  1.3319499422125256e+02  1.7123536988443431e+02  1.9430163578036931e+02  2.0209361115533446e+02  1.9394279794933533e+02  1.7075455568454771e+02  1.3273500748430769e+02  8.2505975074753280e+01  1.6043045340016718e+01  1.0285153292849019e+01  7.2961610605170071e+00  5.1322782966552696e+00  3.0502760949687384e+00  1.8492172188313638e+00  7.9567384985479694e-01  -3.3986228770420310e-03  6.1275121615054209e-03  3.6934024039133185e-04  3.5679262132034569e-04  1.6202332496104291e-06  -3.6590680772719295e-04  -4.5989917215669726e-04  -5.0775753015136255e-04  -4.7063807439063986e-04  -8.2587397467604728e-05  -5.7678279967174275e-04  -2.7334544912868171e-05  1.6873811384222963e-04  -2.7533999215423040e-04  -3.6888609993635424e-04  -4.2137758381452912e-04  -9.4235664037137094e-05  1.0352863684329850e-04  -3.2427017860912839e-04  -2.3538357813336630e-04  -4.0521875248186159e-04  -5.0016291724140583e-04  -4.3468115624142298e-04  3.8869930076592494e-05  8.6566062812761771e-05  -4.3132551936776747e-04  -3.5256718206080250e-04  -5.0076277032996884e-04  -1.7460151857809909e-04  3.7016903661747023e-04  6.2575820826327893e-04  5.3048846324815226e-05  -5.3595247089616768e-04  -4.1758665431193662e-04  -7.3096603087056185e-04  -1.1566602871781366e-03  -1.0403047939143144e-03  1.2824331016117907e-04  5.5602883584021190e-04  6.4237672465056433e-04  6.6609710974105661e-06  -1.2416986588849803e-03  -7.4323768062234071e-04  -7.9930120195521620e-04  -1.1311828068964760e-03  -1.2913290736659615e-03  -9.6823882466031503e-04  -7.4484584979411241e-04  -9.5367772794739301e-04  -1.6582701178258900e-03  8.7772398596140699e-04  6.9166139704872473e-04  -1.5251465405794057e-03  -1.4115603973136306e-03  -1.8650050042207456e-03  -1.0324949133767014e-03  -7.9775859496445821e-04  -8.7021577765556248e-04  -4.9783427716651929e-04  -7.9806004989841923e-04  -1.1534030922169813e-03  -7.6320168593913809e-04  3.2792249519217255e-04  1.4509917958102858e-04  -7.3946095354926922e-04  -5.3768116497779144e-04  -7.5156378351671908e-04  -5.1811114975369667e-04  1.7348806021213521e-04  8.0866382083415140e-05  -4.3127646811812577e-04  -2.5479147186312413e-04  -4.3189724902086533e-04  -6.0826381388533874e-04  -7.0980779503673611e-04  -6.0749442581384152e-04  -3.8268545108624752e-04  -3.3272487976423234e-04  -3.4968019782758049e-04  -3.4441311614805413e-04  -3.4875076437807976e-04  -3.4077937049264929e-04  -3.3754521305400409e-04  -3.1087875167225564e-04  -3.9929903028836067e-04  -4.8878223121182984e-04  -3.4981476613743859e-04  -2.8993445184534726e-04  -3.2334715607602312e-04  -3.0440086337705656e-04  -3.0520976451940869e-04  -3.0887755287730420e-04  -2.8983661547981736e-04  -3.1465006595378332e-04  -4.4489048332401891e-04  -4.4601877479695225e-04  -3.1130313168783969e-04  -2.6080655210082918e-04  -2.9832579258478708e-04  -3.4916821979360916e-04  -2.8574012552981765e-04  -2.5606754223072192e-04  -3.0747038094724148e-04  -2.6171509031449019e-04  -2.6235883306352905e-04  -2.4655105471338673e-04  -1.9782661765766090e-04  -2.0405554705405011e-04  -1.9856235831849792e-04  -1.7706061455594459e-04  -1.5426204710647568e-04  -1.8454557832571950e-04  -1.8987569437313310e-04  -1.6449282299170481e-04  -1.4976890457535870e-04  -1.3496627020225961e-04  -1.1431230355548611e-04  -1.2824910308886311e-04  -5.0085302202268851e-05  -1.9308345702325072e-05  -9.4945410866381722e-05  -7.8078797665520543e-05  -6.0825031569343732e-05  -4.6085107025454671e-05  -2.8846959990000275e-05  -2.6538618804843218e-05  -1.6137163306033926e-05  -2.1134680907278798e-06  2.0410995547296977e-05  -1.2941981819081591e-05  1.0948447482816855e-04  4.2001972632166546e-04  3.2844341527913214e-04  5.3754558683965349e-05  6.3029271386235081e-05  4.4813913920184797e-05  2.8226050361056606e-04  4.1936660972955982e-04  1.4621542837363338e-04  1.4728809365521697e-04  1.3546777457163660e-04  3.8897470489867106e-04  5.7365533135953297e-04  1.6978176804620309e-04  3.2334406951850547e-04  9.3629646598990192e-04  7.7903561743744749e-04  2.8200762559189532e-04  2.4999687708653019e-04  3.1808726625168573e-04  3.3819269763109142e-04  3.7770260700024629e-04  3.9726531775532184e-04  4.0045871731637185e-04  4.0961869489906184e-04  4.3178144973654754e-04  4.5255133361880553e-04  4.6900358082129184e-04  4.9266946661376222e-04  5.2237961963799088e-04  5.2825122506202065e-04  5.3574930052258096e-04  5.8015214259635444e-04  6.1793908389847017e-04  6.1785688055031405e-04  6.1739586610409011e-04  6.4888327726836934e-04  6.8914416239355015e-04  6.9390637394478962e-04  7.3136765755648443e-04  6.2258115399114360e-04  1.0601051819227269e-03  1.8861284778620342e-03  2.3297580960042752e-03  1.8734206225000042e-03  7.4177184676970059e-04  1.0733394694307855e-03  2.1164906709703717e-03  2.5829762967051200e-03  2.0811835114843314e-03  8.4644825325429500e-04  1.1915126524686117e-03  2.3891800376152138e-03  2.5895205837857603e-03  2.8095190699152545e-03  2.3518287673764951e-03  9.9002733563394196e-04  1.2793383050885424e-03  2.9509143583218004e-03  2.3482285803115492e-03  1.8381317394958090e-03  2.1116889764905022e-03  1.7483517148106909e-03  2.6022770092397783e-03  3.5484367010812177e-03  2.5068822705232910e-03  2.0555296552812402e-03  2.3372086885079485e-03  1.9440225197610008e-03  2.8925884330834855e-03  3.8030253045478243e-03  3.0673768234239971e-03  1.3786747230947131e-03  1.7272919332251618e-03  3.7918847965669857e-03  3.1842818345819940e-03  2.0331270900967795e-03  3.8203246774157454e-03  3.3883054604064485e-03  2.1578642303119611e-03  4.0461926508172869e-03  3.4700589398204687e-03  2.7619529397708200e-03  3.0499124662943331e-03  2.8997631441654913e-03  3.4051507054133406e-03  2.2682063942640615e-03  1.4318030600543737e-03  2.9964301927629263e-03  3.9323872893292817e-03  2.4107962751557413e-03  1.9660688157731999e-03  2.3169068532588369e-03  2.3854690763278393e-03  2.0821157038192145e-03  3.4606921353103888e-03  4.5996085203282733e-03  2.8345558697153920e-03  2.4338162027986647e-03  2.9387388862455672e-03  2.8911373342293059e-03  3.0256897721892312e-03  3.1261315096147275e-03  3.2392859817421448e-03  3.3578104602184889e-03  3.4832988862136083e-03  3.6164591639527956e-03  3.7564369382562571e-03  3.9032308370640090e-03  4.0580594233829868e-03  4.2198736996444733e-03  4.3878502372244046e-03  4.5640860660525178e-03  4.7464703431307192e-03  4.9338436026128661e-03  5.1266954552325553e-03  5.3210166520138375e-03  5.5283744025678991e-03  5.7203759232609128e-03  5.8976136699886265e-03  6.0768612447138761e-03  6.2916136626443896e-03  6.4775230706287214e-03  6.6523364068081505e-03  6.8104732862470886e-03  6.9514034352414576e-03  7.0746866514616227e-03  7.1775434883224387e-03  7.2238226753238832e-03  7.3486493872898483e-03  6.9110490574725118e-03  8.6429830274795047e-03  1.0426222202421356e-02  7.3998480071409238e-03  6.3001918572542755e-03  6.8907556333973373e-03  6.1810934821091169e-03  6.0674185732584604e-03  5.6484238333534172e-03  5.2099978505255997e-03  4.7099052178259443e-03  4.2650099689742213e-03  3.7277624961367952e-03  3.0651053772858504e-03  2.3182136437893486e-03  1.9050083649241524e-03  1.7037133192281588e-03  8.8901219774429046e-04  -3.8738786985494663e-05  -5.6130491032505437e-04  -1.2031078644909438e-03  -1.8669816012217375e-03  -2.3610915615949334e-03  -2.7751236643723865e-03  -3.1807162577027061e-03  -3.5581529232709404e-03  -3.8983389712939822e-03  -4.1921155268681539e-03  -4.4572132094155351e-03  -4.6771974438621538e-03  -4.8370400217146777e-03  -4.9384609748291831e-03  -5.0069330106709145e-03  -5.0649662339871376e-03  -5.0968632780435015e-03  -5.0863970946224413e-03  -5.0335267764916366e-03  -4.9748894081902322e-03  -4.9025981351717577e-03  -4.8497291747153374e-03  -4.7412098351455063e-03  -4.6234333866239045e-03  -4.4868603282912011e-03  -4.3390825237254252e-03  -4.1565948385654614e-03  -4.0019673677964647e-03  -3.8625088993467591e-03  -3.7329543931338906e-03  -3.5896362993654857e-03  -3.4300464172234923e-03  -3.2587069209925519e-03  -3.1107689222103475e-03  -2.9753036230816803e-03  -2.8359530229583310e-03  -2.6990352216490921e-03  -2.5631610595116734e-03  -2.4309528841589788e-03  -2.3047111651566124e-03  -2.1826975524138932e-03  -2.0698537652776390e-03  -1.9647718885212550e-03  -1.8675817798725000e-03  -1.7800255558104779e-03  -1.6971140102301442e-03  -1.6115554137328006e-03  -1.5276531562229809e-03  -1.4474438851500985e-03  -1.3555610214716464e-03  -1.2698360828698231e-03  -1.2125523582060755e-03  -1.1669802286155134e-03  -1.1057444267368018e-03  -1.0399085373974098e-03  -9.8336907506664409e-04  -9.3158100178876760e-04  -8.8211866757857606e-04  -8.2888198542538447e-04  -8.0123034866747510e-04  -8.0917333076266286e-04  4.6272152834582068e-04  4.0615446019420120e-04  -1.2259161630201901e-03  -3.9359611377723911e-04  -6.1052439052479521e-04  -4.9688690760928416e-04  -6.9798795551725241e-04  8.7908146832471981e-04  5.8106791948895969e-04  -6.1948142026491072e-04  -3.3900603247274903e-04  -3.8850701862131143e-04  -3.4030225795217569e-04  -3.3521768409300339e-04  -3.1342513365059487e-04  -2.9177690951116944e-04  -2.7040894967495166e-04  -2.5416260279362800e-04  -2.3833366145378050e-04  -2.1610497671656511e-04  -2.8584186604236749e-04  4.5133164406244977e-04  2.9880378630047286e-04  -4.1977250081056316e-04  4.8743070868856970e-04  3.0195488631433676e-04  -2.3033414939715869e-04  -1.0314904679876369e-04  -1.2177319770105746e-04  -1.0046124069552848e-04  -9.8023884014830799e-05  -9.3969945455625432e-05  -1.5656936966939691e-04  4.5379601020049644e-04  2.6061378032431583e-04  -3.5078044661724912e-04  -3.6510388170109227e-04  2.7425278589473840e-04  6.6656226639716116e-04  4.9532789784627854e-05  -3.6384639671742115e-04  -6.4998654076890987e-05  -4.2650767751828128e-06  -9.9564008619613132e-05  -1.5621037931839185e-04  -1.2252789062329149e-04  -1.1964570308168224e-04  -1.9906757340200213e-04  -1.5894721837909272e-04  -3.2474692155746300e-05  2.2912591910159705e-04  -2.9961256844456344e-04  -2.9657891355251232e-04  -1.8705801588868719e-04  -2.760798