<?xml version="1.0"?>
<VTKFile type="UnstructuredGrid"  version="0.1"  >
<UnstructuredGrid>
<Piece  NumberOfPoints="25087" NumberOfCells="49212">
<Points>
<DataArray  type="Float64"  NumberOfComponents="3"  format="ascii">0 0 0  0.75 0 0  0.85 0 0  1.8 0 0  1.8 0.1 0  0 0.1 0  0.009939587277681541 0 0  0.01987917455536239 0 0  0.02981876183304314 0 0  0.03975834911072389 0 0  0.04969793638840794 0 0  0.05963752366609719 0 0  0.06957711094378713 0 0  0.07951669822147707 0 0  0.08945628549916627 0 0  0.09939587277684642 0 0  0.109335460054518 0 0  0.1192750473321896 0 0  0.1292146346098671 0 0  0.1391542218875571 0 0  0.149093809165247 0 0  0.1590333964429369 0 0  0.1689729837206268 0 0  0.1789125709983168 0 0  0.1888521582760067 0 0  0.1987917455536966 0 0  0.2087313328313865 0 0  0.2186709201090765 0 0  0.2286105073867664 0 0  0.2385500946644563 0 0  0.2484896819421462 0 0  0.2584292692198362 0 0  0.2683688564975261 0 0  0.278308443775216 0 0  0.288248031052906 0 0  0.2981876183305959 0 0  0.3081272056082858 0 0  0.3180667928859758 0 0  0.3280063801636657 0 0  0.3379459674413556 0 0  0.3478855547190456 0 0  0.3578251419967355 0 0  0.3677647292744254 0 0  0.3777043165521413 0 0  0.3876439038298989 0 0  0.3975834911076623 0 0  0.4075230783854257 0 0  0.4174626656631892 0 0  0.4274022529409527 0 0  0.4373418402187161 0 0  0.4472814274964795 0 0  0.457221014774243 0 0  0.4671606020520065 0 0  0.4771001893297699 0 0  0.4870397766075334 0 0  0.4969793638852968 0 0  0.5067309463239997 0 0  0.5157711254978494 0 0  0.5241202977806269 0 0  0.5318312802296193 0 0  0.5389528546926976 0 0  0.5455300745089914 0 0  0.5516045497071054 0 0  0.5572147069557104 0 0  0.562396037778403 0 0  0.5671813217260944 0 0  0.5716008310492434 0 0  0.5756825257083404 0 0  0.5794522250791264 0 0  0.582933778518776 0 0  0.5861492110966979 0 0  0.5891188647964261 0 0  0.5918615250678128 0 0  0.5943945443357254 0 0  0.5967339452616621 0 0  0.5988945293659402 0 0  0.6009061908335473 0 0  0.6028941082891001 0 0  0.6048820257446528 0 0  0.6068699432002055 0 0  0.6088578606557582 0 0  0.6108457781113108 0 0  0.6128336955668636 0 0  0.6148216130224162 0 0  0.616809530477969 0 0  0.6187974479335216 0 0  0.6207853653890744 0 0  0.6227732828446271 0 0  0.6247612003001798 0 0  0.6267491177557325 0 0  0.6287370352112852 0 0  0.6307249526668378 0 0  0.6327128701223905 0 0  0.6347007875779432 0 0  0.6366887050334959 0 0  0.6386766224890487 0 0  0.6406645399446014 0 0  0.642652457400154 0 0  0.6446403748557068 0 0  0.6466282923112595 0 0  0.6486162097668122 0 0  0.6506041272223648 0 0  0.6525920446779175 0 0  0.6545799621334703 0 0  0.656567879589023 0 0  0.6585557970445757 0 0  0.6605437145001284 0 0  0.6625316319556811 0 0  0.6645195494112337 0 0  0.6665074668667865 0 0  0.6684953843223391 0 0  0.6704833017778919 0 0  0.6724712192334446 0 0  0.6744591366889973 0 0  0.67644705414455 0 0  0.6784349716001027 0 0  0.6804228890556554 0 0  0.6824108065112081 0 0  0.6843987239667607 0 0  0.6863866414223134 0 0  0.6883745588778661 0 0  0.6903624763334189 0 0  0.6923503937889716 0 0  0.6943383112445243 0 0  0.696326228700077 0 0  0.6983141461556297 0 0  0.7003020636111823 0 0  0.7022899810667351 0 0  0.7042778985222878 0 0  0.7062658159778404 0 0  0.7082537334333932 0 0  0.7102416508889459 0 0  0.7122295683444986 0 0  0.7142174858000513 0 0  0.716205403255604 0 0  0.7181933207111566 0 0  0.7201812381667094 0 0  0.722169155622262 0 0  0.7241570730778149 0 0  0.7261449905333676 0 0  0.7281329079889202 0 0  0.7301208254444729 0 0  0.7321087429000257 0 0  0.7340966603555783 0 0  0.7360845778111311 0 0  0.7380724952666838 0 0  0.7400604127222364 0 0  0.7420483301777892 0 0  0.7440362476333419 0 0  0.7460241650888946 0 0  0.7480120825444474 0 0  0.8519928290587546 0 0  0.8539856581175093 0 0  0.855978487176264 0 0  0.8579713162350187 0 0  0.8599641452937733 0 0  0.8619569743525279 0 0  0.8639498034112826 0 0  0.8659426324700373 0 0  0.867935461528792 0 0  0.8699282905875466 0 0  0.8719211196463013 0 0  0.873913948705056 0 0  0.8759067777638107 0 0  0.8778996068225653 0 0  0.8798924358813199 0 0  0.8818852649400746 0 0  0.8838780939988293 0 0  0.885870923057584 0 0  0.8878637521163386 0 0  0.8898565811750933 0 0  0.8918494102338479 0 0  0.8938422392926026 0 0  0.8958350683513573 0 0  0.8978278974101119 0 0  0.8998207264688666 0 0  0.9018135555276212 0 0  0.903806384586376 0 0  0.9057992136451306 0 0  0.9077920427038852 0 0  0.9097848717626399 0 0  0.9117777008213945 0 0  0.9137705298801493 0 0  0.9157633589389039 0 0  0.9177561879976586 0 0  0.9197490170564132 0 0  0.921741846115168 0 0  0.9237346751739226 0 0  0.9257275042326772 0 0  0.9277203332914319 0 0  0.9297131623501866 0 0  0.9317059914089413 0 0  0.9336988204676959 0 0  0.9356916495264506 0 0  0.9376844785852052 0 0  0.93967730764396 0 0  0.9416701367027146 0 0  0.9436629657614692 0 0  0.9456557948202239 0 0  0.9476486238789785 0 0  0.9496414529377333 0 0  0.9516342819964879 0 0  0.9536271110552426 0 0  0.9556199401139972 0 0  0.957612769172752 0 0  0.9596055982315066 0 0  0.9615984272902612 0 0  0.9635912563490159 0 0  0.9655840854077706 0 0  0.9675769144665253 0 0  0.9695697435252775 0 0  0.9715625725840263 0 0  0.9735554016427752 0 0  0.9755482307015241 0 0  0.9775410597602689 0 0  0.9795338888190119 0 0  0.9815267178777549 0 0  0.9835195469364979 0 0  0.9855123759952465 0 0  0.9875052050539954 0 0  0.9894980341127442 0 0  0.9914908631714945 0 0  0.9934836922302491 0 0  0.9954765212890038 0 0  0.9974693503477584 0 0  0.9994621794065132 0 0  1.001455008465268 0 0  1.003447837524022 0 0  1.005440666582777 0 0  1.007433495641532 0 0  1.009426324700286 0 0  1.011419153759041 0 0  1.013411982817796 0 0  1.01540481187655 0 0  1.017397640935305 0 0  1.01939046999406 0 0  1.021383299052814 0 0  1.023376128111569 0 0  1.025368957170324 0 0  1.027361786229078 0 0  1.029354615287833 0 0  1.031347444346588 0 0  1.033340273405342 0 0  1.035333102464097 0 0  1.037325931522852 0 0  1.039318760581606 0 0  1.041311589640361 0 0  1.043304418699116 0 0  1.04529724775787 0 0  1.047290076816625 0 0  1.04928290587538 0 0  1.051275734934134 0 0  1.053268563992889 0 0  1.055261393051644 0 0  1.057254222110398 0 0  1.059247051169153 0 0  1.061239880227908 0 0  1.063232709286662 0 0  1.065225538345417 0 0  1.067218367404172 0 0  1.069211196462926 0 0  1.071204025521681 0 0  1.073196854580436 0 0  1.07518968363919 0 0  1.077182512697945 0 0  1.0791753417567 0 0  1.081168170815454 0 0  1.083160999874209 0 0  1.085153828932964 0 0  1.087146657991718 0 0  1.089139487050473 0 0  1.091132316109228 0 0  1.093125145167982 0 0  1.095117974226737 0 0  1.097110803285491 0 0  1.099103632344246 0 0  1.101096461403001 0 0  1.103089290461756 0 0  1.10508211952051 0 0  1.107074948579265 0 0  1.10906777763802 0 0  1.111060606696774 0 0  1.113053435755529 0 0  1.115046264814284 0 0  1.117039093873038 0 0  1.119031922931793 0 0  1.121024751990547 0 0  1.123017581049302 0 0  1.125010410108057 0 0  1.127003239166811 0 0  1.128996068225566 0 0  1.130988897284321 0 0  1.132981726343075 0 0  1.13497455540183 0 0  1.136967384460585 0 0  1.13896021351934 0 0  1.140953042578094 0 0  1.142945871636849 0 0  1.144938700695604 0 0  1.146931529754358 0 0  1.148924358813113 0 0  1.150917187871868 0 0  1.152910016930622 0 0  1.154902845989377 0 0  1.156895675048131 0 0  1.158888504106886 0 0  1.160881333165641 0 0  1.162874162224395 0 0  1.16486699128315 0 0  1.166859820341905 0 0  1.168852649400659 0 0  1.170845478459414 0 0  1.172838307518169 0 0  1.174831136576924 0 0  1.176823965635678 0 0  1.178816794694433 0 0  1.180809623753187 0 0  1.182802452811942 0 0  1.184795281870697 0 0  1.186788110929451 0 0  1.188780939988206 0 0  1.190773769046961 0 0  1.192766598105715 0 0  1.19475942716447 0 0  1.196752256223225 0 0  1.198745085281979 0 0  1.200748912638162 0 0  1.20288546443348 0 0  1.205199299294777 0 0  1.207705128061463 0 0  1.2104188818489 0 0  1.213357812369785 0 0  1.216540604460539 0 0  1.219987493828263 0 0  1.223720393159986 0 0  1.227763034966436 0 0  1.232141120812665 0 0  1.23688248446048 0 0  1.242017269350748 0 0  1.247578120948599 0 0  1.253600390288261 0 0  1.260122366103743 0 0  1.267185511970863 0 0  1.274834732580962 0 0  1.283118657571247 0 0  1.292089952249604 0 0  1.30179273530951 0 0  1.311756880603283 0 0  1.321721025897057 0 0  1.33168517119083 0 0  1.341649316484614 0 0  1.351613461778471 0 0  1.36157760707236 0 0  1.371541752366183 0 0  1.381505897659957 0 0  1.391470042953772 0 0  1.401434188247646 0 0  1.411398333541451 0 0  1.421362478835224 0 0  1.431326624129069 0 0  1.44129076942293 0 0  1.451254914716717 0 0  1.461219060010506 0 0  1.471183205304368 0 0  1.481147350598211 0 0  1.491111495891984 0 0  1.501075641185789 0 0  1.511039786479664 0 0  1.521003931773478 0 0  1.530968077067251 0 0  1.540932222361076 0 0  1.550896367654947 0 0  1.560860512948745 0 0  1.570824658242518 0 0  1.580788803536311 0 0  1.590752948830143 0 0  1.600717094123925 0 0  1.610681239417698 0 0  1.620645384711508 0 0  1.630609530005332 0 0  1.640573675299105 0 0  1.650537820592878 0 0  1.660501965886704 0 0  1.670466111180512 0 0  1.680430256474285 0 0  1.690394401768069 0 0  1.7003585470619 0 0  1.710322692355692 0 0  1.720286837649466 0 0  1.730250982943265 0 0  1.740215128237097 0 0  1.750179273530885 0 0  1.760143418824716 0 0  1.770107564118548 0 0  1.780071709412366 0 0  1.790035854706168 0 0  1.8 0.0001 0  1.8 0.00023 0  1.8 0.000399 0  1.8 0.0006187 0  1.8 0.0009043100000000001 0  1.8 0.001275603 0  1.8 0.0017582839 0  1.8 0.01140662711998408 0  1.8 0.02105497033995717 0  1.8 0.03070331355992841 0  1.8 0.04035165677989965 0  1.8 0.0499999999998722 0  1.8 0.05964834321989785 0  1.8 0.06929668643992376 0  1.8 0.07894502965995151 0  1.8 0.08859337287997926 0  1.8 0.0982417161 0  1.8 0.09872439700000001 0  1.8 0.09909569 0  1.8 0.09938130000000001 0  1.8 0.09960100000000001 0  1.8 0.09977000000000001 0  1.8 0.0999 0  1.790017325432064 0.1 0  1.780034650
[...]
<PointData  Vectors="Velocity"> 
<DataArray  type="Float64"  Name="Velocity"  NumberOfComponents="3" format="ascii">0.0000000000000000e+00 0.0000000000000000e+00 0.0000000000000000e+00  0.0000000000000000e+00 0.0000000000000000e+00 0.0000000000000000e+00  0.0000000000000000e+00 0.0000000000000000e+00 0.0000000000000000e+00  0.0000000000000000e+00 0.0000000000000000e+00 0.0000000000000000e+00  0.0000000000000000e+00 0.0000000000000000e+00 0.0000000000000000e+00  0.0000000000000000e+00 0.0000000000000000e+00 0.0000000000000000e+00  0.0000000000000000e+00 0.0000000000000000e+00 0.0000000000000000e+00  0.0000000000000000e+00 0.0000000000000000e+00 0.0000000000000000e+00  0.0000000000000000e+00 0.0000000000000000e+00 0.0000000000000000e+00  0.0000000000000000e+00 0.0000000000000000e+00 0.0000000000000000e+00  0.0000000000000000e+00 0.0000000000000000e+00 0.0000000000000000e+00  0.0000000000000000e+00 0.0000000000000000e+00 0.0000000000000000e+00  0.0000000000000000e+00 0.0000000000000000e+00 0.0000000000000000e+00  0.0000000000000000e+00 0.0000000000000000e+00 0.0000000000000000e+00  0.0000000000000000e+00 0.0000000000000000e+00 0.0000000000000000e+00  0.0000000000000000e+00 0.0000000000000000e+00 0.0000000000000000e+00  0.0000000000000000e+00 0.0000000000000000e+00 0.0000000000000000e+00  0.0000000000000000e+00 0.0000000000000000e+00 0.0000000000000000e+00  0.0000000000000000e+00 0.0000000000000000e+00 0.0000000000000000e+00  0.0000000000000000e+00 0.0000000000000000e+00 0.0000000000000000e+00  0.0000000000000000e+00 0.0000000000000000e+00 0.0000000000000000e+00  0.0000000000000000e+00 0.0000000000000000e+00 0.0000000000000000e+00  0.0000000000000000e+00 0.0000000000000000e+00 0.0000000000000000e+00  0.0000000000000000e+00 0.0000000000000000e+00 0.0000000000000000e+00  0.0000000000000000e+00 0.0000000000000000e+00 0.0000000000000000e+00  0.0000000000000000e+00 0.0000000000000000e+00 0.0000000000000000e+00  0.0000000000000000e+00 0.0000000000000000e+00 0.0000000000000000e+00  0.0000000000000000e+00 0.0000000000000000e+00 0.0000000000000000e+00  0.0000000000000000e+00 0.0000000000000000e+00 0.0000000000000000e+00  0.0000000000000000e+00 0.0000000000000000e+00 0.0000000000000000e+00  0.0000000000000000e+00 0.0000000000000000e+00 0.0000000000000000e+00  0.0000000000000000e+00 0.0000000000000000e+00 0.0000000000000000e+00  0.0000000000000000e+00 0.0000000000000000e+00 0.0000000000000000e+00  0.0000000000000000e+00 0.0000000000000000e+00 0.0000000000000000e+00  0.0000000000000000e+00 0.0000000000000000e+00 0.0000000000000000e+00  0.0000000000000000e+00 0.0000000000000000e+00 0.0000000000000000e+00  0.0000000000000000e+00 0.0000000000000000e+00 0.0000000000000000e+00  0.0000000000000000e+00 0.0000000000000000e+00 0.0000000000000000e+00  0.0000000000000000e+00 0.0000000000000000e+00 0.0000000000000000e+00  0.0000000000000000e+00 0.0000000000000000e+00 0.0000000000000000e+00  0.0000000000000000e+00 0.0000000000000000e+00 0.0000000000000000e+00  0.0000000000000000e+00 0.0000000000000000e+00 0.0000000000000000e+00  0.0000000000000000e+00 0.0000000000000000e+00 0.0000000000000000e+00  0.0000000000000000e+00 0.0000000000000000e+00 0.0000000000000000e+00  0.0000000000000000e+00 0.0000000000000000e+00 0.0000000000000000e+00  0.0000000000000000e+00 0.0000000000000000e+00 0.0000000000000000e+00  0.0000000000000000e+00 0.0000000000000000e+00 0.0000000000000000e+00  0.0000000000000000e+00 0.0000000000000000e+00 0.0000000000000000e+00  0.0000000000000000e+00 0.0000000000000000e+00 0.0000000000000000e+00  0.0000000000000000e+00 0.0000000000000000e+00 0.0000000000000000e+00  0.0000000000000000e+00 0.0000000000000000e+00 0.0000000000000000e+00  0.0000000000000000e+00 0.0000000000000000e+00 0.0000000000000000e+00  0.0000000000000000e+00 0.0000000000000000e+00 0.0000000000000000e+00  0.0000000000000000e+00 0.0000000000000000e+00 0.0000000000000000e+00  0.0000000000000000e+00 0.0000000000000000e+00 0.0000000000000000e+00  0.0000000000000000e+00 0.0000000000000000e+00 0.0000000000000000e+00  0.0000000000000000e+00 0.0000000000000000e+00 0.0000000000000000e+00  0.0000000000000000e+00 0.0000000000000000e+00 0.0000000000000000e+00  0.0000000000000000e+00 0.0000000000000000e+00 0.0000000000000000e+00  0.0000000000000000e+00 0.0000000000000000e+00 0.0000000000000000e+00  0.0000000000000000e+00 0.0000000000000000e+00 0.0000000000000000e+00  0.0000000000000000e+00 0.0000000000000000e+00 0.0000000000000000e+00  0.0000000000000000e+00 0.0000000000000000e+00 0.0000000000000000e+00  0.0000000000000000e+00 0.0000000000000000e+00 0.0000000000000000e+00  0.0000000000000000e+00 0.0000000000000000e+00 0.0000000000000000e+00  0.0000000000000000e+00 0.0000000000000000e+00 0.0000000000000000e+00  0.0000000000000000e+00 0.0000000000000000e+00 0.0000000000000000e+00  0.0000000000000000e+00 0.0000000000000000e+00 0.0000000000000000e+00  0.0000000000000000e+00 0.0000000000000000e+00 0.0000000000000000e+00  0.0000000000000000e+00 0.0000000000000000e+00 0.0000000000000000e+00  0.0000000000000000e+00 0.0000000000000000e+00 0.0000000000000000e+00  0.0000000000000000e+00 0.0000000000000000e+00 0.0000000000000000e+00  0.0000000000000000e+00 0.0000000000000000e+00 0.0000000000000000e+00  0.0000000000000000e+00 0.0000000000000000e+00 0.0000000000000000e+00  0.0000000000000000e+00 0.0000000000000000e+00 0.0000000000000000e+00  0.0000000000000000e+00 0.0000000000000000e+00 0.0000000000000000e+00  0.0000000000000000e+00 0.0000000000000000e+00 0.0000000000000000e+00  0.0000000000000000e+00 0.0000000000000000e+00 0.0000000000000000e+00  0.0000000000000000e+00 0.0000000000000000e+00 0.0000000000000000e+00  0.0000000000000000e+00 0.0000000000000000e+00 0.0000000000000000e+00  0.0000000000000000e+00 0.0000000000000000e+00 0.0000000000000000e+00  0.0000000000000000e+00 0.0000000000000000e+00 0.0000000000000000e+00  0.0000000000000000e+00 0.0000000000000000e+00 0.0000000000000000e+00  0.0000000000000000e+00 0.0000000000000000e+00 0.0000000000000000e+00  0.0000000000000000e+00 0.0000000000000000e+00 0.0000000000000000e+00  0.0000000000000000e+00 0.0000000000000000e+00 0.0000000000000000e+00  0.0000000000000000e+00 0.0000000000000000e+00 0.0000000000000000e+00  0.0000000000000000e+00 0.0000000000000000e+00 0.0000000000000000e+00  0.0000000000000000e+00 0.0000000000000000e+00 0.0000000000000000e+00  0.0000000000000000e+00 0.0000000000000000e+00 0.0000000000000000e+00  0.0000000000000000e+00 0.0000000000000000e+00 0.0000000000000000e+00  0.0000000000000000e+00 0.0000000000000000e+00 0.0000000000000000e+00  0.0000000000000000e+00 0.0000000000000000e+00 0.0000000000000000e+00  0.0000000000000000e+00 0.0000000000000000e+00 0.0000000000000000e+00  0.0000000000000000e+00 0.0000000000000000e+00 0.0000000000000000e+00  0.0000000000000000e+00 0.0000000000000000e+00 0.0000000000000000e+00  0.0000000000000000e+00 0.0000000000000000e+00 0.0000000000000000e+00  0.0000000000000000e+00 0.0000000000000000e+00 0.0000000000000000e+00  0.0000000000000000e+00 0.0000000000000000e+00 0.0000000000000000e+00  0.0000000000000000e+00 0.0000000000000000e+00 0.0000000000000000e+00  0.0000000000000000e+00 0.0000000000000000e+00 0.0000000000000000e+00  0.0000000000000000e+00 0.0000000000000000e+00 0.0000000000000000e+00  0.0000000000000000e+00 0.0000000000000000e+00 0.0000000000000000e+00  0.0000000000000000e+00 0.0000000000000000e+00 0.0000000000000000e+00  0.0000000000000000e+00 0.0000000000000000e+00 0.0000000000000000e+00  0.0000000000000000e+00 0.0000000000000000e+00 0.0000000000000000e+00  0.0000000000000000e+00 0.0000000000000000e+00 0.0000000000000000e+00  0.0000000000000000e+00 0.0000000000000000e+00 0.0000000000000000e+00  0.0000000000000000e+00 0.0000000000000000e+00 0.0000000000000000e+00  0.0000000000000000e+00 0.0000000000000000e+00 0.0000000000000000e+00  0.0000000000000000e+00 0.0000000000000000e+00 0.0000000000000000e+00  0.0000000000000000e+00 0.0000000000000000e+00 0.0000000000000000e+00  0.0000000000000000e+00 0.0000000000000000e+00 0.0000000000000000e+00  0.0000000000000000e+00 0.0000000000000000e+00 0.0000000000000000e+00  0.0000000000000000e+00 0.0000000000000000e+00 0.0000000000000000e+00  0.0000000000000000e+00 0.0000000000000000e+00 0.0000000000000000e+00  0.0000000000000000e+00 0.0000000000000000e+00 0.0000000000000000e+00  0.0000000000000000e+00 0.0000000000000000e+00 0.0000000000000000e+00  0.0000000000000000e+00 0.0000000000000000e+00 0.0000000000000000e+00  0.0000000000000000e+00 0.0000000000000000e+00 0.0000000000000000e+00  0.0000000000000000e+00 0.0000000000000000e+00 0.0000000000000000e+00  0.0000000000000000e+00 0.0000000000000000e+00 0.0000000000000000e+00  0.0000000000000000e+00 0.0000000000000000e+00 0.0000000000000000e+00  0.0000000000000000e+00 0.0000000000000000e+00 0.0000000000000000e+00  0.0000000000000000e+00 0.0000000000000000e+00 0.0000000000000000e+00  0.0000000000000000e+00 0.0000000000000000e+00 0.0000000000000000e+00  0.0000000000000000e+00 0.0000000000000000e+00 0.0000000000000000e+00  0.0000000000000000e+00 0.0000000000000000e+00 0.0000000000000000e+00  0.0000000000000000e+00 0.0000000000000000e+00 0.0000000000000000e+00  0.0000000000000000e+00 0.0000000000000000e+00 0.0000000000000000e+00  0.0000000000000000e+00 0.0000000000000000e+00 0.0000000000000000e+00  0.0000000000000000e+00 0.0000000000000000e+00 0.0000000000000000e+00  0.0000000000000000e+00 0.0000000000000000e+00 0.0000000000000000e+00  0.0000000000000000e+00 0.0000000000000000e+00 0.0000000000000000e+00  0.0000000000000000e+00 0.0000000000000000e+00 0.0000000000000000e+00  0.0000000000000000e+00 0.0000000000000000e+00 0.0000000000000000e+00  0.0000000000000000e+00 0.0000000000000000e+00 0.0000000000000000e+00  0.0000000000000000e+00 0.0000000000000000e+00 0.0000000000000000e+00  0.0000000000000000e+00 0.0000000000000000e+00 0.0000000000000000e+00  0.0000000000000000e+00 0.0000000000000000e+00 0.0000000000000000e+00  0.0000000000000000e+00 0.0000000000000000e+00 0.0000000000000000e+00  0.0000000000000000e+00 0.0000000000000000e+00 0.0000000000000000e+00  0.0000000000000000e+00 0.0000000000000000e+00 0.0000000000000000e+00  0.0000000000000000e+00 0.0000000000000000e+00 0.0000000000000000e+00  0.0000000000000000e+00 0.0000000000000000e+00 0.0000000000000000e+00  0.0000000000000000e+00 0.0000000000000000e+00 0.0000000000000000e+00  0.0000000000000000e+00 0.0000000000000000e+00 0.0000000000000000e+00  0.0000000000000000e+00 0.0000000000000000e+00 0.0000000000000000e+00  0.0000000000000000e+00 0.0000000000000000e+00 0.0000000000000000e+00  0.0000000000000000e+00 0.0000000000000000e+00 0.0000000000000000e+00  0.0000000000000000e+00 0.0000000000000000e+00 0.0000000000000000e+00  0.0000000000000000e+00 0.0000000000000000e+00 0.0000000000000000e+00  0.0000000000000000e+00 0.0000000000000000e+00 0.0000000000000000e+00  0.0000000000000000e+00 0.0000000000000000e+00 0.0000000000000000e+00  0.0000000000000000e+00 0.0000000000000000e+00 0.0000000000000000e+00  0.0000000000000000e+00 0.0000000000000000e+00 0.0000000000000000e+00  0.0000000000000000e+00 0.0000000000000000e+00 0.0000000000000000e+00  0.0000000000000000e+00 0.0000000000000000e+00 0.0000000000000000e+00  0.0000000000000000e+00 0.0000000000000000e+00 0.0000000000000000e+00  0.0000000000000000e+00 0.0000000000000000e+00 0.0000000000000000e+00  0.0000000000000000e+00 0.0000000000000000e+00 0.0000000000000000e+00  0.0000000000000000e+00 0.0000000000000000e+00 0.0000000000000000e+00  0.0000000000000000e+00 0.0000000000000000e+00 0.0000000000000000e+00  0.0000000000000000e+00 0.0000000000000000e+00 0.0000000000000000e+00  0.0000000000000000e+00 0.0000000000000000e+00 0.0000000000000000e+00  0.0000000000000000e+00 0.0000000000000000e+00 0.0000000000000000e+00  0.0000000000000000e+00 0.0000000000000000e+00 0.0000000000000000e+00  0.0000000000000000e+00 0.0000000000000000e+00 0.0000000000000000e+00  0.0000000000000000e+00 0.0000000000000000e+00 0.0000000000000000e+00  0.0000000000000000e+00 0.0000000000000000e+00 0.0000000000000000e+00  0.0000000000000000e+00 0.0000000000000000e+00 0.0000000000000000e+00  0.0000000000000000e+00 0.0000000000000000e+00 0.0000000000000000e+00  0.0000000000000000e+00 0.0000000000000000e+00 0.0000000000000000e+00  0.0000000000000000e+00 0.0000000000000000e+00 0.0000000000000000e+00  0.0000000000000000e+00 0.0000000000000000e+00 0.0000000000000000e+00  0.0000000000000000e+00 0.0000000000000000e+00 0.0000000000000000e+00  0.0000000000000000e+00 0.0000000000000000e+00 0.0000000000000000e+00  0.0000000000000000e+00 0.0000000000000000e+00 0.0000000000000000e+00  0.0000000000000000e+00 0.0000000000000000e+00 0.0000000000000000e+00  0.0000000000000000e+00 0.0000000000000000e+00 0.0000000000000000e+00  0.0000000000000000e+00 0.0000000000000000e+00 0.0000000000000000e+00  0.0000000000000000e+00 0.0000000000000000e+00 0.0000000000000000e+00  0.0000000000000000e+00 0.0000000000000000e+00 0.0000000000000000e+00  0.0000000000000000e+00 0.0000000000000000e+00 0.0000000000000000e+00  0.0000000000000000e+00 0.0000000000000000e+00 0.0000000000000000e+00  0.0000000000000000e+00 0.0000000000000000e+00 0.0000000000000000e+00  0.0000000000000000e+00 0.0000000000000000e+00 0.0000000000000000e+00  0.0000000000000000e+00 0.0000000000000000e+00 0.0000000000000000e+00  0.0000000000000000e+00 0.0000000000000000e+00 0.0000000000000000e+00  0.0000000000000000e+00 0.0000000000000000e+00 0.0000000000000000e+00  0.0000000000000000e+00 0.0000000000000000e+00 0.0000000000000000e+00  0.0000000000000000e+00 0.0000000000000000e+00 0.0000000000000000e+00  0.0000000000000000e+00 0.0000000000000000e+00 0.0000000000000000e+00  0.0000000000000000e+00 0.0000000000000000e+00 0.0000000000000000e+00  0.0000000000000000e+00 0.0000000000000000e+00 0.0000000000000000e+00  0.0000000000000000e+00 0.0000000000000000e+00 0.0000000000000000e+00  0.0000000000000000e+00 0.0000000000000000e+00 0.0000000000000000e+00  0.0000000000000000e+00 0.0000000000000000e+00 0.0000000000000000e+00  0.0000000000000000e+00 0.0000000000000000e+00 0.0000000000000000e+00  0.0000000000000000e+00 0.0000000000000000e+00 0.0000000000000000e+00  0.0000000000000000e+00 0.0000000000000000e+00 0.0000000000000000e+00  0.0000000000000000e+00 0.0000000000000000e+00 0.0000000000000000e+00  0.0000000000000000e+00 0.0000000000000000e+00 0.0000000000000000e+00  0.0000000000000000e+00 0.0000000000000000e+00 0.0000000000000000e+00  0.0000000000000000e+00 0.0000000000000000e+00 0.0000000000000000e+00  0.0000000000000000e+00 0.0000000000000000e+00 0.0000000000000000e+00  0.0000000000000000e+00 0.0000000000000000e+00 0.0000000000000000e+00  0.0000000000000000e+00 0.0000000000000000e+00 0.0000000000000000e+00  0.0000000000000000e+00 0.0000000000000000e+00 0.0000000000000000e+00  0.0000000000000000e+00 0.0000000000000000e+00 0.0000000000000000e+00  0.0000000000000000e+00 0.0000000000000000e+00 0.0000000000000000e+00  0.0000000000000000e+00 0.0000000000000000e+00 0.0000000000000000e+00  0.0000000000000000e+00 0.0000000000000000e+00 0.0000000000000000e+00  0.0000000000000000e+00 0.0000000000000000e+00 0.0000000000000000e+00  0.0000000000000000e+00 0.0000000000000000e+00 0.0000000000000000e+00  0.0000000000000000e+00 0.0000000000000000e+00 0.0000000000000000e+00  0.0000000000000000e+00 0.0000000000000000e+00 0.0000000000000000e+00  0.0000000000000000e+00 0.0000000000000000e+00 0.0000000000000000e+00  0.0000000000000000e+00 0.0000000000000000e+00 0.0000000000000000e+00  0.0000000000000000e+00 0.0000000000000000e+00 0.0000000000000000e+00  0.0000000000000000e+00 0.0000000000000000e+00 0.0000000000000000e+00  0.0000000000000000e+00 0.0000000000000000e+00 0.0000000000000000e+00  0.0000000000000000e+00 0.0000000000000000e+00 0.0000000000000000e+00  0.0000000000000000e+00 0.0000000000000000e+00 0.0000000000000000e+00  0.0000000000000000e+00 0.0000000000000000e+00 0.0000000000000000e+00  0.0000000000000000e+00 0.0000000000000000e+00 0.0000000000000000e+00  0.0000000000000000e+00 0.0000000000000000e+00 0.0000000000000000e+00  0.0000000000000000e+00 0.0000000000000000e+00 0.0000000000000000e+00  0.0000000000000000e+00 0.0000000000000000e+00 0.0000000000000000e+00  0.0000000000000000e+00 0.0000000000000000e+00 0.0000000000000000e+00  0.0000000000000000e+00 0.0000000000000000e+00 0.0000000000000000e+00  0.0000000000000000e+00 0.0000000000000000e+00 0.0000000000000000e+00  0.0000000000000000e+00 0.0000000000000000e+00 0.0000000000000000e+00  0.0000000000000000e+00 0.0000000000000000e+00 0.0000000000000000e+00  0.0000000000000000e+00 0.0000000000000000e+00 0.0000000000000000e+00  0.0000000000000000e+00 0.0000000000000000e+00 0.0000000000000000e+00  0.0000000000000000e+00 0.0000000000000000e+00 0.0000000000000000e+00  0.0000000000000000e+00 0.0000000000000000e+00 0.0000000000000000e+00  0.0000000000000000e+00 0.0000000000000000e+00 0.0000000000000000e+00  0.0000000000000000e+00 0.0000000000000000e+00 0.0000000000000000e+00  0.0000000000000000e+00 0.0000000000000000e+00 0.0000000000000000e+00  0.0000000000000000e+00 0.0000000000000000e+00 0.0000000000000000e+00  0.0000000000000000e+00 0.0000000000000000e+00 0.0000000000000000e+00  0.0000000000000000e+00 0.0000000000000000e+00 0.0000000000000000e+00  0.0000000000000000e+00 0.0000000000000000e+00 0.0000000000000000e+00  0.0000000000000000e+00 0.0000000000000000e+00 0.0000000000000000e+00  0.0000000000000000e+00 0.0000000000000000e+00 0.0000000000000000e+00  0.0000000000000000e+00 0.0000000000000000e+00 0.0000000000000000e+00  0.0000000000000000e+00 0.0000000000000000e+00 0.0000000000000000e+00  0.0000000000000000e+00 0.0000000000000000e+00 0.0000000000000000e+00  0.0000000000000000e+00 0.0000000000000000e+00 0.0000000000000000e+00  0.0000000000000000e+00 0.0000000000000000e+00 0.0000000000000000e+00  0.0000000000000000e+00 0.0000000000000000e+00 0.0000000000000000e+00  0.0000000000000000e+00 0.0000000000000000e+00 0.0000000000000000e+00  0.0000000000000000e+00 0.0000000000000000e+00 0.0000000000000000e+00  0.0000000000000000e+00 0.0000000000000000e+00 0.0000000000000000e+00  0.0000000000000000e+00 0.0000000000000000e+00 0.0000000000000000e+00  0.0000000000000000e+00 0.0000000000000000e+00 0.0000000000000000e+00  0.0000000000000000e+00 0.0000000000000000e+00 0.0000000000000000e+00  0.0000000000000000e+00 0.0000000000000000e+00 0.0000000000000000e+00  0.0000000000000000e+00 0.0000000000000000e+00 0.0000000000000000e+00  0.0000000000000000e+00 0.0000000000000000e+00 0.0000000000000000e+00  0.0000000000000000e+00 0.0000000000000000e+00 0.0000000000000000e+00  0.0000000000000000e+00 0.0000000000000000e+00 0.0000000000000000e+00  0.0000000000000000e+00 0.0000000000000000e+00 0.0000000000000000e+00  0.0000000000000000e+00 0.0000000000000000e+00 0.0000000000000000e+00  0.0000000000000000e+00 0.0000000000000000e+00 0.0000000000000000e+00  0.0000000000000000e+00 0.0000000000000000e+00 0.0000000000000000e+00  0.0000000000000000e+00 0.0000000000000000e+00 0.0000000000000000e+00  0.0000000000000000e+00 0.0000000000000000e+00 0.0000000000000000e+00  0.0000000000000000e+00 0.0000000000000000e+00 0.0000000000000000e+00  0.0000000000000000e+00 0.0000000000000000e+00 0.0000000000000000e+00  0.0000000000000000e+00 0.0000000000000000e+00 0.0000000000000000e+00  0.0000000000000000e+00 0.0000000000000000e+00 0.0000000000000000e+00  0.0000000000000000e+00 0.0000000000000000e+00 0.0000000000000000e+00  0.0000000000000000e+00 0.0000000000000000e+00 0.0000000000000000e+00  0.0000000000000000e+00 0.0000000000000000e+00 0.0000000000000000e+00  0.0000000000000000e+00 0.0000000000000000e+00 0.0000000000000000e+00  0.0000000000000000e+00 0.0000000000000000e+00 0.0000000000000000e+00  0.0000000000000000e+00 0.0000000000000000e+00 0.0000000000000000e+00  0.0000000000000000e+00 0.0000000000000000e+00 0.0000000000000000e+00  0.0000000000000000e+00 0.0000000000000000e+00 0.0000000000000000e+00  0.0000000000000000e+00 0.0000000000000000e+00 0.0000000000000000e+00  0.0000000000000000e+00 0.0000000000000000e+00 0.0000000000000000e+00  0.00