<?xml version="1.0"?>
<VTKFile type="UnstructuredGrid"  version="0.1"  >
<UnstructuredGrid>
<Piece  NumberOfPoints="14844" NumberOfCells="29085">
<Points>
<DataArray  type="Float64"  NumberOfComponents="3"  format="ascii">0 0 0  5 0 0  5 1 0  0 1 0  0 0.65 0  0 0.35 0  0.01999999999998493 0 0  0.03999999999996989 0 0  0.05999999999995592 0 0  0.07999999999994194 0 0  0.09999999999992795 0 0  0.1199999999999136 0 0  0.1399999999998968 0 0  0.1599999999998791 0 0  0.1799999999998568 0 0  0.1999999999998338 0 0  0.2199999999998087 0 0  0.2399999999997852 0 0  0.2599999999997656 0 0  0.279999999999748 0 0  0.299999999999734 0 0  0.31999999999972 0 0  0.339999999999706 0 0  0.3599999999996922 0 0  0.3799999999996782 0 0  0.3999999999996642 0 0  0.4199999999996502 0 0  0.4399999999996362 0 0  0.4599999999996223 0 0  0.4799999999996083 0 0  0.4999999999995943 0 0  0.5199999999995804 0 0  0.5399999999995663 0 0  0.5599999999995524 0 0  0.5799999999995384 0 0  0.5999999999995166 0 0  0.6199999999994916 0 0  0.6399999999994498 0 0  0.6599999999994024 0 0  0.6799999999993465 0 0  0.699999999999288 0 0  0.7199999999992297 0 0  0.7399999999991713 0 0  0.7599999999991129 0 0  0.7799999999990546 0 0  0.7999999999989961 0 0  0.8199999999989377 0 0  0.8399999999988794 0 0  0.859999999998821 0 0  0.8799999999987627 0 0  0.8999999999987042 0 0  0.9199999999986458 0 0  0.9399999999985874 0 0  0.9599999999985291 0 0  0.9799999999984708 0 0  0.9999999999984123 0 0  1.019999999998354 0 0  1.039999999998296 0 0  1.059999999998237 0 0  1.079999999998179 0 0  1.09999999999812 0 0  1.119999999998062 0 0  1.139999999998004 0 0  1.159999999997945 0 0  1.179999999997887 0 0  1.199999999997829 0 0  1.21999999999777 0 0  1.239999999997712 0 0  1.259999999997654 0 0  1.279999999997595 0 0  1.299999999997537 0 0  1.319999999997478 0 0  1.33999999999742 0 0  1.359999999997361 0 0  1.379999999997303 0 0  1.399999999997245 0 0  1.419999999997187 0 0  1.439999999997128 0 0  1.45999999999707 0 0  1.479999999997011 0 0  1.499999999996953 0 0  1.519999999996895 0 0  1.539999999996836 0 0  1.559999999996778 0 0  1.579999999996719 0 0  1.599999999996661 0 0  1.619999999996602 0 0  1.639999999996544 0 0  1.659999999996486 0 0  1.679999999996428 0 0  1.699999999996369 0 0  1.719999999996311 0 0  1.739999999996252 0 0  1.759999999996194 0 0  1.779999999996136 0 0  1.799999999996077 0 0  1.819999999996019 0 0  1.83999999999596 0 0  1.859999999995902 0 0  1.879999999995844 0 0  1.899999999995785 0 0  1.919999999995727 0 0  1.939999999995669 0 0  1.95999999999561 0 0  1.979999999995552 0 0  1.999999999995511 0 0  2.019999999995497 0 0  2.039999999995502 0 0  2.059999999995533 0 0  2.079999999995563 0 0  2.099999999995593 0 0  2.119999999995624 0 0  2.139999999995654 0 0  2.159999999995684 0 0  2.179999999995715 0 0  2.199999999995745 0 0  2.219999999995776 0 0  2.239999999995806 0 0  2.259999999995836 0 0  2.279999999995867 0 0  2.299999999995897 0 0  2.319999999995928 0 0  2.339999999995958 0 0  2.359999999995988 0 0  2.379999999996019 0 0  2.399999999996049 0 0  2.41999999999608 0 0  2.43999999999611 0 0  2.45999999999614 0 0  2.479999999996171 0 0  2.499999999996201 0 0  2.519999999996231 0 0  2.539999999996262 0 0  2.559999999996292 0 0  2.579999999996323 0 0  2.599999999996353 0 0  2.619999999996384 0 0  2.639999999996414 0 0  2.659999999996445 0 0  2.679999999996475 0 0  2.699999999996505 0 0  2.719999999996535 0 0  2.739999999996567 0 0  2.759999999996596 0 0  2.779999999996627 0 0  2.799999999996657 0 0  2.819999999996687 0 0  2.839999999996718 0 0  2.859999999996749 0 0  2.879999999996779 0 0  2.899999999996809 0 0  2.91999999999684 0 0  2.93999999999687 0 0  2.959999999996901 0 0  2.979999999996931 0 0  2.999999999996961 0 0  3.019999999996991 0 0  3.039999999997022 0 0  3.059999999997052 0 0  3.079999999997083 0 0  3.099999999997114 0 0  3.119999999997143 0 0  3.139999999997174 0 0  3.159999999997204 0 0  3.179999999997234 0 0  3.199999999997265 0 0  3.219999999997296 0 0  3.239999999997325 0 0  3.259999999997356 0 0  3.279999999997386 0 0  3.299999999997417 0 0  3.319999999997447 0 0  3.339999999997478 0 0  3.359999999997508 0 0  3.379999999997538 0 0  3.399999999997569 0 0  3.419999999997599 0 0  3.43999999999763 0 0  3.45999999999766 0 0  3.47999999999769 0 0  3.49999999999772 0 0  3.519999999997751 0 0  3.539999999997781 0 0  3.559999999997812 0 0  3.579999999997842 0 0  3.599999999997872 0 0  3.619999999997903 0 0  3.639999999997933 0 0  3.659999999997964 0 0  3.679999999997994 0 0  3.699999999998025 0 0  3.719999999998055 0 0  3.739999999998085 0 0  3.759999999998116 0 0  3.779999999998147 0 0  3.799999999998176 0 0  3.819999999998207 0 0  3.839999999998238 0 0  3.859999999998267 0 0  3.879999999998298 0 0  3.899999999998329 0 0  3.919999999998359 0 0  3.939999999998389 0 0  3.95999999999842 0 0  3.97999999999845 0 0  3.99999999999848 0 0  4.019999999998511 0 0  4.039999999998542 0 0  4.059999999998571 0 0  4.079999999998602 0 0  4.099999999998633 0 0  4.119999999998663 0 0  4.139999999998693 0 0  4.159999999998724 0 0  4.179999999998754 0 0  4.199999999998784 0 0  4.219999999998815 0 0  4.239999999998845 0 0  4.259999999998875 0 0  4.279999999998906 0 0  4.299999999998937 0 0  4.319999999998966 0 0  4.339999999998997 0 0  4.359999999999028 0 0  4.379999999999058 0 0  4.399999999999088 0 0  4.419999999999119 0 0  4.439999999999149 0 0  4.459999999999179 0 0  4.47999999999921 0 0  4.49999999999924 0 0  4.51999999999927 0 0  4.539999999999301 0 0  4.559999999999331 0 0  4.579999999999361 0 0  4.599999999999392 0 0  4.619999999999423 0 0  4.639999999999453 0 0  4.659999999999483 0 0  4.679999999999513 0 0  4.699999999999544 0 0  4.719999999999574 0 0  4.739999999999605 0 0  4.759999999999635 0 0  4.779999999999665 0 0  4.799999999999695 0 0  4.819999999999726 0 0  4.839999999999756 0 0  4.859999999999787 0 0  4.879999999999818 0 0  4.899999999999848 0 0  4.919999999999878 0 0  4.939999999999908 0 0  4.95999999999994 0 0  4.979999999999969 0 0  5 0.01999999999996237 0  5 0.03999999999992186 0  5 0.05999999999987837 0  5 0.07999999999984518 0  5 0.09999999999981463 0  5 0.1199999999997832 0  5 0.1399999999997328 0  5 0.1599999999996745 0  5 0.1799999999996162 0  5 0.1999999999995579 0  5 0.2199999999994996 0  5 0.2399999999994413 0  5 0.259999999999383 0  5 0.2799999999993247 0  5 0.2999999999992664 0  5 0.3199999999992081 0  5 0.3399999999991498 0  5 0.3599999999990915 0  5 0.3799999999990332 0  5 0.3999999999989749 0  5 0.4199999999989167 0  5 0.4399999999988584 0  5 0.4599999999988 0  5 0.4799999999987418 0  5 0.4999999999986943 0  5 0.5199999999987361 0  5 0.5399999999987888 0  5 0.5599999999988415 0  5 0.5799999999988942 0  5 0.5999999999989468 0  5 0.6199999999989995 0  5 0.6399999999990521 0  5 0.6599999999991049 0  5 0.6799999999991574 0  5 0.6999999999992101 0  5 0.7199999999992628 0  5 0.7399999999993154 0  5 0.7599999999993681 0  5 0.7799999999994207 0  5 0.7999999999994734 0  5 0.8199999999995261 0  5 0.8399999999995788 0  5 0.8599999999996314 0  5 0.8799999999996841 0  5 0.8999999999997367 0  5 0.9199999999997894 0  5 0.939999999999842 0  5 0.9599999999998947 0  5 0.9799999999999475 0  4.98 1 0  4.96 1 0  4.94 1 0  4.92 1 0  4.899999999999999 1 0  4.88 1 0  4.859999999999999 1 0  4.84 1 0  4.819999999999999 1 0  4.8 1 0  4.779999999999999 1 0  4.76 1 0  4.739999999999999 1 0  4.72 1 0  4.699999999999999 1 0  4.68 1 0  4.659999999999999 1 0  4.64 1 0  4.619999999999999 1 0  4.6 1 0  4.579999999999999 1 0  4.56 1 0  4.539999999999999 1 0  4.52 1 0  4.499999999999999 1 0  4.48 1 0  4.459999999999999 1 0  4.44 1 0  4.419999999999999 1 0  4.399999999999999 1 0  4.379999999999999 1 0  4.359999999999999 1 0  4.339999999999999 1 0  4.319999999999999 1 0  4.299999999999999 1 0  4.279999999999999 1 0  4.259999999999999 1 0  4.239999999999998 1 0  4.219999999999999 1 0  4.199999999999998 1 0  4.179999999999999 1 0  4.159999999999998 1 0  4.139999999999999 1 0  4.119999999999998 1 0  4.099999999999999 1 0  4.079999999999998 1 0  4.059999999999999 1 0  4.039999999999998 1 0  4.019999999999998 1 0  3.999999999999998 1 0  3.979999999999998 1 0  3.959999999999998 1 0  3.939999999999998 1 0  3.919999999999998 1 0  3.899999999999998 1 0  3.879999999999998 1 0  3.859999999999998 1 0  3.839999999999998 1 0  3.819999999999998 1 0  3.799999999999998 1 0  3.779999999999998 1 0  3.759999999999998 1 0  3.739999999999998 1 0  3.719999999999998 1 0  3.699999999999998 1 0  3.679999999999998 1 0  3.659999999999997 1 0  3.639999999999998 1 0  3.619999999999997 1 0  3.599999999999997 1 0  3.579999999999997 1 0  3.559999999999998 1 0  3.539999999999997 1 0  3.519999999999998 1 0  3.499999999999998 1 0  3.479999999999998 1 0  3.459999999999998 1 0  3.439999999999998 1 0  3.419999999999997 1 0  3.399999999999998 1 0  3.379999999999998 1 0  3.359999999999998 1 0  3.339999999999998 1 0  3.319999999999998 1 0  3.299999999999998 1 0  3.279999999999998 1 0  3.259999999999998 1 0  3.239999999999998 1 0  3.219999999999998 1 0  3.199999999999998 1 0  3.179999999999998 1 0  3.159999999999998 1 0  3.139999999999998 1 0  3.119999999999998 1 0  3.099999999999998 1 0  3.079999999999998 1 0  3.059999999999998 1 0  3.039999999999998 1 0  3.019999999999998 1 0  2.999999999999998 1 0  2.979999999999998 1 0  2.959999999999998 1 0  2.939999999999998 1 0  2.919999999999998 1 0  2.899999999999998 1 0  2.879999999999998 1 0  2.859999999999998 1 0  2.839999999999998 1 0  2.819999999999998 1 0  2.799999999999998 1 0  2.779999999999998 1 0  2.759999999999998 1 0  2.739999999999998 1 0  2.719999999999998 1 0  2.699999999999998 1 0  2.679999999999998 1 0  2.659999999999998 1 0  2.639999999999998 1 0  2.619999999999998 1 0  2.599999999999998 1 0  2.579999999999998 1 0  2.559999999999998 1 0  2.539999999999998 1 0  2.519999999999998 1 0  2.499999999999998 1 0  2.479999999999998 1 0  2.459999999999998 1 0  2.439999999999998 1 0  2.419999999999998 1 0  2.399999999999999 1 0  2.379999999999999 1 0
[...]
<PointData  Vectors="Velocity"> 
<DataArray  type="Float64"  Name="Velocity"  NumberOfComponents="3" format="ascii">0.0000000000000000e+00 0.0000000000000000e+00 0.0000000000000000e+00  6.0270759050632288e+00 2.6762966821407669e-01 0.0000000000000000e+00  6.0307297163922522e+00 2.6886302073139479e-01 0.0000000000000000e+00  0.0000000000000000e+00 0.0000000000000000e+00 0.0000000000000000e+00  1.5000000000000000e+01 5.0000000000000000e-01 0.0000000000000000e+00  0.0000000000000000e+00 0.0000000000000000e+00 0.0000000000000000e+00  3.8278401549245375e-02 6.6823152693124654e-01 0.0000000000000000e+00  1.1117263419193731e-01 1.1628817804368625e+00 0.0000000000000000e+00  2.0076123079622213e-01 1.5430322041612969e+00 0.0000000000000000e+00  3.0550475101061098e-01 1.8307293084209137e+00 0.0000000000000000e+00  4.2420719609900809e-01 2.0398723722484902e+00 0.0000000000000000e+00  5.5613653890289672e-01 2.1818056448490166e+00 0.0000000000000000e+00  7.0054092106018073e-01 2.2666951820396575e+00 0.0000000000000000e+00  8.5631999164946770e-01 2.3039126838218587e+00 0.0000000000000000e+00  1.0221566084320843e+00 2.3021077419443357e+00 0.0000000000000000e+00  1.1964199390725805e+00 2.2690781016140105e+00 0.0000000000000000e+00  1.3773632617415104e+00 2.2117809105538893e+00 0.0000000000000000e+00  1.5631528348534971e+00 2.1362725440638726e+00 0.0000000000000000e+00  1.7519731073784666e+00 2.0477262988897769e+00 0.0000000000000000e+00  1.9421094576686915e+00 1.9504670453364090e+00 0.0000000000000000e+00  2.1319830145071865e+00 1.8480506694689312e+00 0.0000000000000000e+00  2.3201826266011580e+00 1.7433250139334506e+00 0.0000000000000000e+00  2.5055011667748159e+00 1.6385407810633394e+00 0.0000000000000000e+00  2.6868922203698857e+00 1.5354226257154855e+00 0.0000000000000000e+00  2.8635338181732175e+00 1.4352789301019948e+00 0.0000000000000000e+00  3.0347503871883865e+00 1.3390394446171998e+00 0.0000000000000000e+00  3.2000311519688309e+00 1.2473540694502236e+00 0.0000000000000000e+00  3.3590107168007384e+00 1.1606322127753648e+00 0.0000000000000000e+00  3.5114405089872158e+00 1.0791057781959179e+00 0.0000000000000000e+00  3.6571776351023453e+00 1.0028618093894490e+00 0.0000000000000000e+00  3.7961698434025233e+00 9.3187695129242620e-01 0.0000000000000000e+00  3.9284346641814487e+00 8.6604662712970115e-01 0.0000000000000000e+00  4.0540513503460627e+00 8.0520784878312290e-01 0.0000000000000000e+00  4.1731458990708878e+00 7.4915512187474054e-01 0.0000000000000000e+00  4.2858822858885173e+00 6.9765553912267775e-01 0.0000000000000000e+00  4.3924525824436156e+00 6.5045938159622818e-01 0.0000000000000000e+00  4.4930707776821359e+00 6.0730861725168750e-01 0.0000000000000000e+00  4.5879648970528120e+00 5.6794329421087619e-01 0.0000000000000000e+00  4.6773736419216672e+00 5.3210631417514920e-01 0.0000000000000000e+00  4.7615402090029519e+00 4.9954689048666334e-01 0.0000000000000000e+00  4.8407103589383329e+00 4.7002318907388924e-01 0.0000000000000000e+00  4.9151286427408829e+00 4.4330447970451964e-01 0.0000000000000000e+00  4.9850368595918297e+00 4.1916987408584638e-01 0.0000000000000000e+00  5.0506702585759218e+00 3.9741331654194828e-01 0.0000000000000000e+00  5.1122613872431213e+00 3.7784026322606196e-01 0.0000000000000000e+00  5.1700312823661285e+00 3.6026610485942628e-01 0.0000000000000000e+00  5.2241963626815879e+00 3.4452410715476900e-01 0.0000000000000000e+00  5.2749621279958872e+00 3.3045410338460818e-01 0.0000000000000000e+00  5.3225263773864828e+00 3.1790947649267753e-01 0.0000000000000000e+00  5.3670792093156461e+00 3.0675567501793782e-01 0.0000000000000000e+00  5.4087992079830647e+00 2.9686671215587385e-01 0.0000000000000000e+00  5.4478571549777399e+00 2.8812646835689043e-01 0.0000000000000000e+00  5.4844168027693607e+00 2.8042972674291833e-01 0.0000000000000000e+00  5.5186295689269533e+00 2.7367711969488773e-01 0.0000000000000000e+00  5.5506425877839956e+00 2.6778032198710583e-01 0.0000000000000000e+00  5.5805915311463270e+00 2.6265524198206758e-01 0.0000000000000000e+00  5.6086068341947719e+00 2.5822802918177440e-01 0.0000000000000000e+00  5.6348101116044171e+00 2.5442820691795470e-01 0.0000000000000000e+00  5.6593159514799272e+00 2.5119281228489465e-01 0.0000000000000000e+00  5.6822334669918551e+00 2.4846469498105200e-01 0.0000000000000000e+00  5.7036631727298852e+00 2.4619014224183536e-01 0.0000000000000000e+00  5.7237015094561530e+00 2.4432207045940699e-01 0.0000000000000000e+00  5.7424375464579436e+00 2.4281564669436825e-01 0.0000000000000000e+00  5.7599558749717508e+00 2.4163206942963408e-01 0.0000000000000000e+00  5.7763354519713168e+00 2.4073422187065255e-01 0.0000000000000000e+00  5.7916501093523971e+00 2.4008942504497377e-01 0.0000000000000000e+00  5.8059699521405044e+00 2.3966814807089989e-01 0.0000000000000000e+00  5.8193593934933192e+00 2.3944271887726173e-01 0.0000000000000000e+00  5.8318798807564338e+00 2.3938926331271640e-01 0.0000000000000000e+00  5.8435882381302253e+00 2.3948502686940801e-01 0.0000000000000000e+00  5.8545381204778408e+00 2.3971052932334563e-01 0.0000000000000000e+00  5.8647794218933704e+00 2.4004725290592432e-01 0.0000000000000000e+00  5.8743590672561696e+00 2.4047940045752542e-01 0.0000000000000000e+00  5.8833207697502043e+00 2.4099196507599996e-01 0.0000000000000000e+00  5.8917055427755765e+00 2.4157223252632612e-01 0.0000000000000000e+00  5.8995516528299659e+00 2.4220808758026149e-01 0.0000000000000000e+00  5.9068948528596232e+00 2.4288947568770120e-01 0.0000000000000000e+00  5.9137686753556356e+00 2.4360669223139922e-01 0.0000000000000000e+00  5.9202042589628476e+00 2.4435157113323663e-01 0.0000000000000000e+00  5.9262310213841651e+00 2.4511680994869395e-01 0.0000000000000000e+00  5.9318759756737931e+00 2.4589577437679155e-01 0.0000000000000000e+00  5.9371647528301148e+00 2.4668281167098050e-01 0.0000000000000000e+00  5.9421210906562836e+00 2.4747284381307155e-01 0.0000000000000000e+00  5.9467671886526503e+00 2.4826147650053332e-01 0.0000000000000000e+00  5.9511237646705526e+00 2.4904488301232508e-01 0.0000000000000000e+00  5.9552101554508141e+00 2.4981975720808039e-01 0.0000000000000000e+00  5.9590444000502218e+00 2.5058325808630527e-01 0.0000000000000000e+00  5.9626433290341856e+00 2.5133297036800684e-01 0.0000000000000000e+00  5.9660226402890242e+00 2.5206685339597035e-01 0.0000000000000000e+00  5.9691969742964384e+00 2.5278321067055570e-01 0.0000000000000000e+00  5.9721799839890854e+00 2.5348064514304647e-01 0.0000000000000000e+00  5.9749843903679949e+00 2.5415804214533932e-01 0.0000000000000000e+00  5.9776220881681121e+00 2.5481450213207907e-01 0.0000000000000000e+00  5.9801040672394157e+00 2.5544937878796015e-01 0.0000000000000000e+00  5.9824407222053875e+00 2.5606219053569568e-01 0.0000000000000000e+00  5.9846416037013777e+00 2.5665262837018171e-01 0.0000000000000000e+00  5.9867156722964889e+00 2.5722056334938770e-01 0.0000000000000000e+00  5.9886712919613494e+00 2.5776593102287770e-01 0.0000000000000000e+00  5.9905161675241949e+00 2.5828884593384199e-01 0.0000000000000000e+00  5.9922576074514140e+00 2.5878948394597745e-01 0.0000000000000000e+00  5.9939023003849492e+00 2.5926812437169716e-01 0.0000000000000000e+00  5.9954565585883230e+00 2.5972511737388543e-01 0.0000000000000000e+00  5.9969261970591496e+00 2.6016085596361882e-01 0.0000000000000000e+00  5.9983166711155533e+00 2.6057581540345648e-01 0.0000000000000000e+00  5.9996330520581420e+00 2.6097049338293465e-01 0.0000000000000000e+00  6.0008800538934510e+00 2.6134543082845207e-01 0.0000000000000000e+00  6.0020620746336570e+00 2.6170119142050963e-01 0.0000000000000000e+00  6.0031831959222792e+00 2.6203837085233866e-01 0.0000000000000000e+00  6.0042472460000349e+00 2.6235757113466235e-01 0.0000000000000000e+00  6.0052577529576778e+00 2.6265941172814444e-01 0.0000000000000000e+00  6.0062180097179905e+00 2.6294452467410501e-01 0.0000000000000000e+00  6.0071311396643301e+00 2.6321350513079983e-01 0.0000000000000000e+00  6.0079999407074265e+00 2.6346703428306195e-01 0.0000000000000000e+00  6.0088271344338517e+00 2.6370568971366026e-01 0.0000000000000000e+00  6.0096151607311290e+00 2.6393012437278790e-01 0.0000000000000000e+00  6.0103663562681975e+00 2.6414093142384326e-01 0.0000000000000000e+00  6.0110828793153734e+00 2.6433870645949220e-01 0.0000000000000000e+00  6.0117667099550678e+00 2.6452406711979209e-01 0.0000000000000000e+00  6.0124197550407672e+00 2.6469755330369937e-01 0.0000000000000000e+00  6.0130437181421179e+00 2.6485976595557553e-01 0.0000000000000000e+00  6.0136402623231486e+00 2.6501121848426656e-01 0.0000000000000000e+00  6.0142108667578222e+00 2.6515247383979129e-01 0.0000000000000000e+00  6.0147569732431023e+00 2.6528402630599845e-01 0.0000000000000000e+00  6.0152798820740401e+00 2.6540638672289518e-01 0.0000000000000000e+00  6.0157808184078103e+00 2.6552004129461337e-01 0.0000000000000000e+00  6.0162609569587771e+00 2.6562544638099195e-01 0.0000000000000000e+00  6.0167213384116147e+00 2.6572306015688663e-01 0.0000000000000000e+00  6.0171629842871521e+00 2.6581331001153757e-01 0.0000000000000000e+00  6.0175868223219720e+00 2.6589661239958307e-01 0.0000000000000000e+00  6.0179937277765587e+00 2.6597336728407872e-01 0.0000000000000000e+00  6.0183845210108800e+00 2.6604395368462491e-01 0.0000000000000000e+00  6.0187599677280978e+00 2.6610873789492634e-01 0.0000000000000000e+00  6.0191207833621583e+00 2.6616807243506946e-01 0.0000000000000000e+00  6.0194676433785954e+00 2.6622228771872475e-01 0.0000000000000000e+00  6.0198011752712688e+00 2.6627170404399059e-01 0.0000000000000000e+00  6.0201219694184438e+00 2.6631662658510125e-01 0.0000000000000000e+00  6.0204305860690033e+00 2.6635734128688859e-01 0.0000000000000000e+00  6.0207275420306532e+00 2.6639412675822022e-01 0.0000000000000000e+00  6.0210133275676583e+00 2.6642724490678599e-01 0.0000000000000000e+00  6.0212884108380473e+00 2.6645694149025512e-01 0.0000000000000000e+00  6.0215532169547901e+00 2.6648345575297772e-01 0.0000000000000000e+00  6.0218081617335280e+00 2.6650701037487479e-01 0.0000000000000000e+00  6.0220536297764342e+00 2.6652781766219447e-01 0.0000000000000000e+00  6.0222899861429369e+00 2.6654607876137160e-01 0.0000000000000000e+00  6.0225175757176679e+00 2.6656198382531798e-01 0.0000000000000000e+00  6.0227367248211934e+00 2.6657571258268359e-01 0.0000000000000000e+00  6.0229477415873065e+00 2.6658743560152048e-01 0.0000000000000000e+00  6.0231509208052945e+00 2.6659731201370618e-01 0.0000000000000000e+00  6.0233465378851943e+00 2.6660549497679892e-01 0.0000000000000000e+00  6.0235348591356077e+00 2.6661212539409423e-01 0.0000000000000000e+00  6.0237161332868601e+00 2.6661733937805343e-01 0.0000000000000000e+00  6.0238906011647142e+00 2.6662126207869463e-01 0.0000000000000000e+00  6.0240584886445614e+00 2.6662401396084134e-01 0.0000000000000000e+00  6.0242200141666631e+00 2.6662570601005631e-01 0.0000000000000000e+00  6.0243753840969889e+00 2.6662644420381809e-01 0.0000000000000000e+00  6.0245247970208213e+00 2.6662632708974515e-01 0.0000000000000000e+00  6.0246684423045327e+00 2.6662544756479212e-01 0.0000000000000000e+00  6.0248065016844041e+00 2.6662389271119369e-01 0.0000000000000000e+00  6.0249391491815354e+00 2.6662174416949325e-01 0.0000000000000000e+00  6.0250665521075728e+00 2.6661907847544292e-01 0.0000000000000000e+00  6.0251888708751205e+00 2.6661596700124457e-01 0.0000000000000000e+00  6.0253062604294030e+00 2.6661247723889520e-01 0.0000000000000000e+00  6.0254188689488242e+00 2.6660867129583071e-01 0.0000000000000000e+00  6.0255268404051678e+00 2.6660460836094496e-01 0.0000000000000000e+00  6.0256303124670838e+00 2.6660034273965977e-01 0.0000000000000000e+00  6.0257294191871535e+00 2.6659592581010089e-01 0.0000000000000000e+00  6.0258242894287957e+00 2.6659140544755333e-01 0.0000000000000000e+00  6.0259150479423509e+00 2.6658682604056644e-01 0.0000000000000000e+00  6.0260018156632160e+00 2.6658222929216696e-01 0.0000000000000000e+00  6.0260847093410748e+00 2.6657765442557219e-01 0.0000000000000000e+00  6.0261638431051407e+00 2.6657313767342816e-01 0.0000000000000000e+00  6.0262393268196286e+00 2.6656871283331346e-01 0.0000000000000000e+00  6.0263112677745845e+00 2.6656441152617427e-01 0.0000000000000000e+00  6.0263797697930093e+00 2.6656026331042715e-01 0.0000000000000000e+00  6.0264449343257329e+00 2.6655629576472284e-01 0.0000000000000000e+00  6.0265068596692446e+00 2.6655253472330909e-01 0.0000000000000000e+00  6.0265656420343774e+00 2.6654900431361578e-01 0.0000000000000000e+00  6.0266213747471387e+00 2.6654572718133596e-01 0.0000000000000000e+00  6.0266741492911757e+00 2.6654272450739408e-01 0.0000000000000000e+00  6.0267240545068050e+00 2.6654001624217927e-01 0.0000000000000000e+00  6.0267711775740880e+00 2.6653762112709251e-01 0.0000000000000000e+00  6.0268156033674760e+00 2.6653555682046454e-01 0.0000000000000000e+00  6.0268574149317375e+00 2.6653384012700837e-01 0.0000000000000000e+00  6.0268966939760054e+00 2.6653248677743829e-01 0.0000000000000000e+00  6.0269335194532152e+00 2.6653151183897933e-01 0.0000000000000000e+00  6.0269679700682808e+00 2.6653092977055415e-01 0.0000000000000000e+00  6.0270001216836429e+00 2.6653075405208693e-01 0.0000000000000000e+00  6.0270300495671609e+00 2.6653099799882862e-01 0.0000000000000000e+00  6.0270578269366313e+00 2.6653167432861008e-01 0.0000000000000000e+00  6.0270835261182922e+00 2.6653279542470226e-01 0.0000000000000000e+00  6.0271072179872194e+00 2.6653437328623991e-01 0.0000000000000000e+00  6.0271289721015515e+00 2.6653641965572311e-01 0.0000000000000000e+00  6.0271488572683829e+00 2.6653894586666488e-01 0.0000000000000000e+00  6.0271669406086987e+00 2.6654196314712753e-01 0.0000000000000000e+00  6.0271832885478336e+00 2.6654548273894696e-01 0.0000000000000000e+00  6.0271979663059669e+00 2.6654951571232738e-01 0.0000000000000000e+00  6.0272110383112389e+00 2.6655407312725055e-01 0.0000000000000000e+00  6.0272225680585230e+00 2.6655916602798446e-01 0.0000000000000000e+00  6.0272326180416735e+00 2.6656480548453299e-01 0.0000000000000000e+00  6.0272412504088511e+00 2.6657100241326481e-01 0.0000000000000000e+00  6.0272485259254518e+00 2.6657776784629317e-01 0.0000000000000000e+00  6.0272545050226967e+00 2.6658511302147192e-01 0.0000000000000000e+00  6.0272592472219220e+00 2.6659304915914561e-01 0.0000000000000000e+00  6.0272628115827889e+00 2.6660158759404101e-01 0.0000000000000000e+00  6.0272652565066549e+00 2.6661073975901439e-01 0.0000000000000000e+00  6.0272666397646004e+00 2.6662051715775098e-01 0.0000000000000000e+00  6.0272670189498019e+00 2.6663093104421715e-01 0.0000000000000000e+00  6.0272664507679607e+00 2.6664199283913848e-01 0.0000000000000000e+00  6.0272649912736087e+00 2.6665371419021305e-01 0.0000000000000000e+00  6.0272626969900207e+00 2.6666610626175002e-01 0.0000000000000000e+00  6.0272596232127800e+00 2.6667918004068053e-01 0.0000000000000000e+00  6.0272558250329560e+00 2.6669294652334974e-01 0.0000000000000000e+00  6.0272513573181099e+00 2.6670741637701612e-01 0.0000000000000000e+00  6.0272462747248348e+00 2.6672259969575357e-01 0.0000000000000000e+00  6.0272406311174018e+00 2.6673850620278772e-01 0.0000000000000000e+00  6.0272344812807424e+00 2.6675514482740104e-01 0.0000000000000000e+00  6.0272278782111872e+00 2.6677252323326911e-01 0.0000000000000000e+00  6.0272208756846837e+00 2.6679064845500111e-01 0.0000000000000000e+00  6.0272135265012485e+00 2.6680952618124065e-01 0.0000000000000000e+00  6.0272058837760776e+00 2.6682916067882156e-01 0.0000000000000000e+00  6.0271980001031737e+00 2.6684955419579320e-01 0.0000000000000000e+00  6.0271899275494372e+00 2.6687070701697163e-01 0.0000000000000000e+00  6.0271817184246324e+00 2.6689261704824002e-01 0.0000000000000000e+00  6.0271734242650075e+00 2.6691527935539833e-01 0.0000000000000000e+00  6.0271650963079884e+00 2.6693868552864403e-01 0.0000000000000000e+00  6.0271567851502112e+00 2.6696282354475781e-01 0.0000000000000000e+00  6.0271485412250643e+00 2.6698767729706180e-01 0.0000000000000000e+00  6.0271404139780280e+00 2.6701322531167698e-01 0.0000000000000000e+00  6.0271324517633884e+00 2.6703944106602068e-01 0.0000000000000000e+00  6.0271247026389041e+00 2.6706629198983345e-01 0.0000000000000000e+00  6.0271172131943240e+00 2.6709373836681688e-01 0.0000000000000000e+00  6.0271100287268453e+00 2.6712173300826636e-01 0.0000000000000000e+00  6.0271031935023380e+00 2.6715021961034385e-01 0.0000000000000000e+00  6.0270967487230891e+00 2.6717913317375075e-01 0.0000000000000000e+00  6.0270907348235419e+00 2.6720839645319089e-01 0.0000000000000000e+00  6.0270851885530980e+00 2.6723792487222453e-01 0.0000000000000000e+00  6.0270801457160799e+00 2.6726761572681784e-01 0.0000000000000000e+00  6.0270756357460060e+00 2.6729735557020501e-01 0.0000000000000000e+00  6.0270716859827393e+00 2.6732701596738745e-01 0.0000000000000000e+00  6.0270683179411213e+00 2.6735645202652536e-01 0.0000000000000000e+00  6.0270655479216524e+00 2.6738550358621538e-01 0.0000000000000000e+00  6.0270633861085425e+00 2.6741399267445443e-01 0.0000000000000000e+00  6.0270618354967302e+00 2.6744172279403600e-01 0.0000000000000000e+00  6.0270608896799338e+00 2.6746847861876932e-01 0.0000000000000000e+00  6.0270605323366171e+00 2.6749402991096810e-01 0.0000000000000000e+00  6.0270607361283464e+00 2.6751812870211472e-01 0.0000000000000000e+00  6.0270614604270865e+00 2.6754051379278249e-01 0.0000000000000000e+00  6.0270626494588591e+00 2.6756091674968957e-01 0.0000000000000000e+00  6.0270642315251495e+00 2.6757906849879498e-01 0.0000000000000000e+00  6.0270661171248463e+00 2.6759470582418909e-01 0.0000000000000000e+00  6.0270681935469446e+00 2.6760759141757851e-01 0.0000000000000000e+00  6.0270703276367410e+00 2.6761753999776516e-01 0.0000000000000000e+00  6.0270723611317001e+00 2.6762445825932041e-01 0.0000000000000000e+00  6.0270741133590606e+00 2.6762841528405085e-01 0.0000000000000000e+00  6.0270753796316194e+00 2.6762977781034675e-01 0.0000000000000000e+00  6.0270774746830309e+00 2.6762930512942923e-01 0.0000000000000000e+00  6.0270827831737552e+00 2.6762907799887592e-01 0.0000000000000000e+00  6.0270926457476683e+00 2.6762945879152888e-01 0.0000000000000000e+00  6.0271076046181058e+00 2.6763069336421386e-01 0.0000000000000000e+00  6.0271279153499684e+00 2.6763299161248932e-01 0.0000000000000000e+00  6.0271539572854200e+00 2.6763615144659048e-01 0.0000000000000000e+00  6.0271858832944467e+00 2.6764092853946109e-01 0.0000000000000000e+00  6.0272235259501530e+00 2.6764699016185772e-01 0.0000000000000000e+00  6.0272670324594939e+00 2.6765444098969549e-01 0.0000000000000000e+00  6.0273163616788237e+00 2.6766334370690392e-01 0.0000000000000000e+00  6.0273714018817026e+00 2.6767389568912070e-01 0.0000000000000000e+00  6.0274319602603690e+00 2.6768598420357848e-01 0.0000000000000000e+00  6.0274979445248320e+00 2.6769969052711962e-01 0.0000000000000000e+00  6.0275691515726466e+00 2.6771507761908514e-01 0.0000000000000000e+00  6.0276452386115418e+00 2.6773220141599013e-01 0.0000000000000000e+00  6.0277261310807395e+00 2.6775079725273232e-01 0.0000000000000000e+00  6.0278114655044259e+00 2.6777127547318558e-01 0.0000000000000000e+00  6.0279009538275368e+00 2.6779328425994559e-01 0.0000000000000000e+00  6.0279944261954741e+00 2.6781693733827983e-01 0.0000000000000000e+00  6.0280914629017497e+00 2.6784252179867057e-01 0.0000000000000000e+00  6.0281915798485493e+00 2.6786971966138684e-01 0.0000000000000000e+00  6.0282941710243554e+00 2.6789841690058319e-01 0.0000000000000000e+00  6.0284004995608624e+00 2.6792860345556557e-01 0.0000000000000000e+00  6.0285070572530959e+00 2.6796014824594405e-01 0.0000000000000000e+00  6.0286169071665201e+00 2.6799323668914166e-01 0.0000000000000000e+00  6.0287267036290872e+00 2.6802850580751481e-01 0.0000000000000000e+00  6.0288385560640725e+00 2.6806182069254908e-01 0.0000000000000000e+00  6.0289517856555932e+00 2.6809969223269819e-01 0.0000000000000000e+00  6.0290641037085946e+00 2.6813810803138394e-01 0.0000000000000000e+00  6.02