<?xml version="1.0"?>
<VTKFile type="UnstructuredGrid"  version="0.1"  >
<UnstructuredGrid>
<Piece  NumberOfPoints="25087" NumberOfCells="49212">
<Points>
<DataArray  type="Float64"  NumberOfComponents="3"  format="ascii">0 0 0  0.75 0 0  0.85 0 0  1.8 0 0  1.8 0.1 0  0 0.1 0  0.009939587277681541 0 0  0.01987917455536239 0 0  0.02981876183304314 0 0  0.03975834911072389 0 0  0.04969793638840794 0 0  0.05963752366609719 0 0  0.06957711094378713 0 0  0.07951669822147707 0 0  0.08945628549916627 0 0  0.09939587277684642 0 0  0.109335460054518 0 0  0.1192750473321896 0 0  0.1292146346098671 0 0  0.1391542218875571 0 0  0.149093809165247 0 0  0.1590333964429369 0 0  0.1689729837206268 0 0  0.1789125709983168 0 0  0.1888521582760067 0 0  0.1987917455536966 0 0  0.2087313328313865 0 0  0.2186709201090765 0 0  0.2286105073867664 0 0  0.2385500946644563 0 0  0.2484896819421462 0 0  0.2584292692198362 0 0  0.2683688564975261 0 0  0.278308443775216 0 0  0.288248031052906 0 0  0.2981876183305959 0 0  0.3081272056082858 0 0  0.3180667928859758 0 0  0.3280063801636657 0 0  0.3379459674413556 0 0  0.3478855547190456 0 0  0.3578251419967355 0 0  0.3677647292744254 0 0  0.3777043165521413 0 0  0.3876439038298989 0 0  0.3975834911076623 0 0  0.4075230783854257 0 0  0.4174626656631892 0 0  0.4274022529409527 0 0  0.4373418402187161 0 0  0.4472814274964795 0 0  0.457221014774243 0 0  0.4671606020520065 0 0  0.4771001893297699 0 0  0.4870397766075334 0 0  0.4969793638852968 0 0  0.5067309463239997 0 0  0.5157711254978494 0 0  0.5241202977806269 0 0  0.5318312802296193 0 0  0.5389528546926976 0 0  0.5455300745089914 0 0  0.5516045497071054 0 0  0.5572147069557104 0 0  0.562396037778403 0 0  0.5671813217260944 0 0  0.5716008310492434 0 0  0.5756825257083404 0 0  0.5794522250791264 0 0  0.582933778518776 0 0  0.5861492110966979 0 0  0.5891188647964261 0 0  0.5918615250678128 0 0  0.5943945443357254 0 0  0.5967339452616621 0 0  0.5988945293659402 0 0  0.6009061908335473 0 0  0.6028941082891001 0 0  0.6048820257446528 0 0  0.6068699432002055 0 0  0.6088578606557582 0 0  0.6108457781113108 0 0  0.6128336955668636 0 0  0.6148216130224162 0 0  0.616809530477969 0 0  0.6187974479335216 0 0  0.6207853653890744 0 0  0.6227732828446271 0 0  0.6247612003001798 0 0  0.6267491177557325 0 0  0.6287370352112852 0 0  0.6307249526668378 0 0  0.6327128701223905 0 0  0.6347007875779432 0 0  0.6366887050334959 0 0  0.6386766224890487 0 0  0.6406645399446014 0 0  0.642652457400154 0 0  0.6446403748557068 0 0  0.6466282923112595 0 0  0.6486162097668122 0 0  0.6506041272223648 0 0  0.6525920446779175 0 0  0.6545799621334703 0 0  0.656567879589023 0 0  0.6585557970445757 0 0  0.6605437145001284 0 0  0.6625316319556811 0 0  0.6645195494112337 0 0  0.6665074668667865 0 0  0.6684953843223391 0 0  0.6704833017778919 0 0  0.6724712192334446 0 0  0.6744591366889973 0 0  0.67644705414455 0 0  0.6784349716001027 0 0  0.6804228890556554 0 0  0.6824108065112081 0 0  0.6843987239667607 0 0  0.6863866414223134 0 0  0.6883745588778661 0 0  0.6903624763334189 0 0  0.6923503937889716 0 0  0.6943383112445243 0 0  0.696326228700077 0 0  0.6983141461556297 0 0  0.7003020636111823 0 0  0.7022899810667351 0 0  0.7042778985222878 0 0  0.7062658159778404 0 0  0.7082537334333932 0 0  0.7102416508889459 0 0  0.7122295683444986 0 0  0.7142174858000513 0 0  0.716205403255604 0 0  0.7181933207111566 0 0  0.7201812381667094 0 0  0.722169155622262 0 0  0.7241570730778149 0 0  0.7261449905333676 0 0  0.7281329079889202 0 0  0.7301208254444729 0 0  0.7321087429000257 0 0  0.7340966603555783 0 0  0.7360845778111311 0 0  0.7380724952666838 0 0  0.7400604127222364 0 0  0.7420483301777892 0 0  0.7440362476333419 0 0  0.7460241650888946 0 0  0.7480120825444474 0 0  0.8519928290587546 0 0  0.8539856581175093 0 0  0.855978487176264 0 0  0.8579713162350187 0 0  0.8599641452937733 0 0  0.8619569743525279 0 0  0.8639498034112826 0 0  0.8659426324700373 0 0  0.867935461528792 0 0  0.8699282905875466 0 0  0.8719211196463013 0 0  0.873913948705056 0 0  0.8759067777638107 0 0  0.8778996068225653 0 0  0.8798924358813199 0 0  0.8818852649400746 0 0  0.8838780939988293 0 0  0.885870923057584 0 0  0.8878637521163386 0 0  0.8898565811750933 0 0  0.8918494102338479 0 0  0.8938422392926026 0 0  0.8958350683513573 0 0  0.8978278974101119 0 0  0.8998207264688666 0 0  0.9018135555276212 0 0  0.903806384586376 0 0  0.9057992136451306 0 0  0.9077920427038852 0 0  0.9097848717626399 0 0  0.9117777008213945 0 0  0.9137705298801493 0 0  0.9157633589389039 0 0  0.9177561879976586 0 0  0.9197490170564132 0 0  0.921741846115168 0 0  0.9237346751739226 0 0  0.9257275042326772 0 0  0.9277203332914319 0 0  0.9297131623501866 0 0  0.9317059914089413 0 0  0.9336988204676959 0 0  0.9356916495264506 0 0  0.9376844785852052 0 0  0.93967730764396 0 0  0.9416701367027146 0 0  0.9436629657614692 0 0  0.9456557948202239 0 0  0.9476486238789785 0 0  0.9496414529377333 0 0  0.9516342819964879 0 0  0.9536271110552426 0 0  0.9556199401139972 0 0  0.957612769172752 0 0  0.9596055982315066 0 0  0.9615984272902612 0 0  0.9635912563490159 0 0  0.9655840854077706 0 0  0.9675769144665253 0 0  0.9695697435252775 0 0  0.9715625725840263 0 0  0.9735554016427752 0 0  0.9755482307015241 0 0  0.9775410597602689 0 0  0.9795338888190119 0 0  0.9815267178777549 0 0  0.9835195469364979 0 0  0.9855123759952465 0 0  0.9875052050539954 0 0  0.9894980341127442 0 0  0.9914908631714945 0 0  0.9934836922302491 0 0  0.9954765212890038 0 0  0.9974693503477584 0 0  0.9994621794065132 0 0  1.001455008465268 0 0  1.003447837524022 0 0  1.005440666582777 0 0  1.007433495641532 0 0  1.009426324700286 0 0  1.011419153759041 0 0  1.013411982817796 0 0  1.01540481187655 0 0  1.017397640935305 0 0  1.01939046999406 0 0  1.021383299052814 0 0  1.023376128111569 0 0  1.025368957170324 0 0  1.027361786229078 0 0  1.029354615287833 0 0  1.031347444346588 0 0  1.033340273405342 0 0  1.035333102464097 0 0  1.037325931522852 0 0  1.039318760581606 0 0  1.041311589640361 0 0  1.043304418699116 0 0  1.04529724775787 0 0  1.047290076816625 0 0  1.04928290587538 0 0  1.051275734934134 0 0  1.053268563992889 0 0  1.055261393051644 0 0  1.057254222110398 0 0  1.059247051169153 0 0  1.061239880227908 0 0  1.063232709286662 0 0  1.065225538345417 0 0  1.067218367404172 0 0  1.069211196462926 0 0  1.071204025521681 0 0  1.073196854580436 0 0  1.07518968363919 0 0  1.077182512697945 0 0  1.0791753417567 0 0  1.081168170815454 0 0  1.083160999874209 0 0  1.085153828932964 0 0  1.087146657991718 0 0  1.089139487050473 0 0  1.091132316109228 0 0  1.093125145167982 0 0  1.095117974226737 0 0  1.097110803285491 0 0  1.099103632344246 0 0  1.101096461403001 0 0  1.103089290461756 0 0  1.10508211952051 0 0  1.107074948579265 0 0  1.10906777763802 0 0  1.111060606696774 0 0  1.113053435755529 0 0  1.115046264814284 0 0  1.117039093873038 0 0  1.119031922931793 0 0  1.121024751990547 0 0  1.123017581049302 0 0  1.125010410108057 0 0  1.127003239166811 0 0  1.128996068225566 0 0  1.130988897284321 0 0  1.132981726343075 0 0  1.13497455540183 0 0  1.136967384460585 0 0  1.13896021351934 0 0  1.140953042578094 0 0  1.142945871636849 0 0  1.144938700695604 0 0  1.146931529754358 0 0  1.148924358813113 0 0  1.150917187871868 0 0  1.152910016930622 0 0  1.154902845989377 0 0  1.156895675048131 0 0  1.158888504106886 0 0  1.160881333165641 0 0  1.162874162224395 0 0  1.16486699128315 0 0  1.166859820341905 0 0  1.168852649400659 0 0  1.170845478459414 0 0  1.172838307518169 0 0  1.174831136576924 0 0  1.176823965635678 0 0  1.178816794694433 0 0  1.180809623753187 0 0  1.182802452811942 0 0  1.184795281870697 0 0  1.186788110929451 0 0  1.188780939988206 0 0  1.190773769046961 0 0  1.192766598105715 0 0  1.19475942716447 0 0  1.196752256223225 0 0  1.198745085281979 0 0  1.200748912638162 0 0  1.20288546443348 0 0  1.205199299294777 0 0  1.207705128061463 0 0  1.2104188818489 0 0  1.213357812369785 0 0  1.216540604460539 0 0  1.219987493828263 0 0  1.223720393159986 0 0  1.227763034966436 0 0  1.232141120812665 0 0  1.23688248446048 0 0  1.242017269350748 0 0  1.247578120948599 0 0  1.253600390288261 0 0  1.260122366103743 0 0  1.267185511970863 0 0  1.274834732580962 0 0  1.283118657571247 0 0  1.292089952249604 0 0  1.30179273530951 0 0  1.311756880603283 0 0  1.321721025897057 0 0  1.33168517119083 0 0  1.341649316484614 0 0  1.351613461778471 0 0  1.36157760707236 0 0  1.371541752366183 0 0  1.381505897659957 0 0  1.391470042953772 0 0  1.401434188247646 0 0  1.411398333541451 0 0  1.421362478835224 0 0  1.431326624129069 0 0  1.44129076942293 0 0  1.451254914716717 0 0  1.461219060010506 0 0  1.471183205304368 0 0  1.481147350598211 0 0  1.491111495891984 0 0  1.501075641185789 0 0  1.511039786479664 0 0  1.521003931773478 0 0  1.530968077067251 0 0  1.540932222361076 0 0  1.550896367654947 0 0  1.560860512948745 0 0  1.570824658242518 0 0  1.580788803536311 0 0  1.590752948830143 0 0  1.600717094123925 0 0  1.610681239417698 0 0  1.620645384711508 0 0  1.630609530005332 0 0  1.640573675299105 0 0  1.650537820592878 0 0  1.660501965886704 0 0  1.670466111180512 0 0  1.680430256474285 0 0  1.690394401768069 0 0  1.7003585470619 0 0  1.710322692355692 0 0  1.720286837649466 0 0  1.730250982943265 0 0  1.740215128237097 0 0  1.750179273530885 0 0  1.760143418824716 0 0  1.770107564118548 0 0  1.780071709412366 0 0  1.790035854706168 0 0  1.8 0.0001 0  1.8 0.00023 0  1.8 0.000399 0  1.8 0.0006187 0  1.8 0.0009043100000000001 0  1.8 0.001275603 0  1.8 0.0017582839 0  1.8 0.01140662711998408 0  1.8 0.02105497033995717 0  1.8 0.03070331355992841 0  1.8 0.04035165677989965 0  1.8 0.0499999999998722 0  1.8 0.05964834321989785 0  1.8 0.06929668643992376 0  1.8 0.07894502965995151 0  1.8 0.08859337287997926 0  1.8 0.0982417161 0  1.8 0.09872439700000001 0  1.8 0.09909569 0  1.8 0.09938130000000001 0  1.8 0.09960100000000001 0  1.8 0.09977000000000001 0  1.8 0.0999 0  1.790017325432064 0.1 0  1.780034650
[...]
<PointData  Scalars="Peclet"> 
<DataArray  type="Float64"  Name="Peclet"  format="ascii">7.0885956451751577e-05  3.8692242348971788e-06  -8.7994999552791140e-07  -8.8391206270256367e-04  8.8523314308490192e-04  -1.0665500104665562e-05  1.7290574314863602e-05  -1.4355851942076463e-04  -8.6277954498245377e-05  8.5627056208134323e-05  1.3831127999484928e-04  1.2110328732554714e-04  4.2993708404376758e-05  -5.0590688782483682e-06  5.3943489724609913e-06  8.4747830393330446e-06  -4.3229621163315407e-06  -2.1390964223402219e-07  1.4284419288001221e-06  3.8614904640379474e-06  2.5489303364911222e-06  6.3229174104799131e-06  8.9919622054095189e-06  5.8211340393220593e-06  -5.5357616026874806e-06  -1.1138270529176007e-06  1.9068470044281432e-05  2.8722511510128064e-05  3.6924720257837036e-05  6.8221797228532128e-05  1.0036719658610438e-04  4.2832934790999421e-05  -9.6872103320604053e-06  6.5850084375844524e-06  5.4389523323944076e-06  3.9031323913787493e-06  -6.2252302003128935e-06  4.5911556613054165e-06  2.6047115557870300e-05  3.2764131759967940e-05  3.0129261620493253e-05  -2.9586089683926153e-05  -4.6495876885391293e-05  -1.5095016688626111e-05  -4.6463380477054941e-06  1.2795379157354853e-05  1.3095267207677330e-05  1.9949766542771371e-05  2.2795474044867848e-05  -4.3914619460638553e-06  -1.2197370251822913e-05  -5.5758606754903660e-06  -1.3075723841079282e-05  -1.7023166371060591e-05  -9.0338721433845431e-06  -6.4675042691074823e-05  -1.4252158012061246e-04  -2.1623258188944807e-04  -1.4126943647431046e-04  -3.6772732501795568e-04  -2.5347082682683692e-04  1.1865023441236705e-04  5.9546935646883642e-05  -3.1366027924171775e-04  4.4062123209467584e-06  3.3644013580445164e-05  -1.6326613341645019e-04  -3.7090998119548145e-05  -1.0137727804074471e-04  -8.4122369301947535e-05  -8.0316244088432255e-05  4.7062096126195949e-05  3.4428752917475961e-05  -1.0596480533528997e-04  -7.3151075034965361e-05  -3.7466814077607595e-05  -9.7864968306085881e-06  9.5822464912976005e-06  -6.0337340133441495e-06  4.3108870871128696e-06  -1.3568956084662824e-06  3.4768873230175840e-06  1.9277149204883980e-06  -3.1123656229083794e-06  -4.1106489515013091e-06  -3.2617654727721882e-06  -3.0729936527849297e-06  -2.4188367056196911e-06  -4.2076273941523360e-07  -8.9594796060008280e-07  -9.8979339590325529e-07  -2.4642812425404191e-06  -2.0892801526316910e-06  -6.4296909443302647e-07  -1.7238588201616076e-06  -5.6298259484929558e-06  -5.3987079020354481e-06  2.3735916858296910e-06  -1.1047060517555979e-06  -1.1183667945661031e-05  -5.3549265101830912e-06  -2.8093860461502973e-06  1.5120822287441964e-06  3.1733852072331786e-06  3.0493764938345946e-07  -6.3757991089213929e-06  -5.0703255028483128e-06  -3.6008879388072251e-06  7.0918647772633699e-06  9.4438065741208673e-08  3.7011904538368260e-06  2.0732443928054521e-06  -1.0791309755860036e-05  -5.7264750513662193e-06  -1.0264983921734671e-05  -8.8872238639739262e-06  -1.0094821976192884e-05  -8.8986000179851249e-06  -6.8636307966015096e-06  -8.5368463903305903e-06  -5.5226445842388762e-06  -6.0616725845163068e-06  -6.2501653410179760e-06  -5.6450837021298433e-06  -4.9621577232895791e-06  -6.9931318140971890e-06  1.3966466404207888e-05  5.5753557032217472e-06  -1.0250378084854325e-05  -5.2581758026686580e-06  -7.6983791891219961e-06  -7.3848752063555779e-06  -8.4404035409201321e-06  -1.2121086888750179e-05  -2.3297557141125702e-05  1.1526510134517412e-05  -1.1200567085195090e-06  8.2277805023285539e-06  7.1394007504446976e-06  -1.7373214573659416e-05  -1.3606348951536887e-05  1.7162372709716371e-05  -1.8961370491507223e-06  8.0986669760273470e-06  9.8916344224739844e-06  -2.6071847433802623e-05  -2.2563390542202230e-05  -1.3827549815463785e-05  2.4577923910794986e-05  9.4641421579506701e-06  6.6830212471989730e-06  2.8124557472072735e-06  -1.8015756931998075e-06  1.5263258389173640e-05  1.4145087687659821e-05  1.6162807993375398e-05  1.5108486446758986e-05  1.5356390588931980e-05  1.5591312594670316e-05  1.6039940107443634e-05  1.3524027297220776e-05  9.2618491826893729e-06  9.9469940104928053e-06  1.2542706913376414e-05  1.2499640145214824e-05  1.2043725293790936e-05  1.1288253793009347e-05  1.1849198655220452e-05  1.3005871987544647e-05  1.2655363765458804e-05  1.0121389708541232e-05  6.9340394033792293e-06  7.8644799871000992e-06  1.1100177274620568e-05  1.0545553172083557e-05  7.6609464766883882e-06  8.3019573399917153e-06  1.0988230469788745e-05  1.1176023807868394e-05  1.0490207369573816e-05  1.0030720776476472e-05  1.0398693085801781e-05  1.1868330393288507e-05  1.1921904047335767e-05  1.1166042850577885e-05  1.0117644715540801e-05  8.8590348844965241e-06  9.1530929522915228e-06  1.0005249944761907e-05  1.1717017328188353e-05  9.5194477092186379e-06  4.7181864033125576e-06  5.0670142162797054e-06  6.3884758367806941e-06  7.2261001310928991e-06  8.9811476730476311e-06  9.3453931780612209e-06  8.4797814344500725e-06  7.2134155595034133e-06  7.2973125372078920e-06  8.7391823695898128e-06  8.5550992310563979e-06  6.6965579565676094e-06  6.8352154202235810e-06  8.8169688442788192e-06  8.7354723528716453e-06  7.6508224804163132e-06  6.1342641098446215e-06  5.8926102573028892e-06  1.3774157875522286e-06  -1.8712089749995365e-06  1.4465723466444321e-06  8.6711240705651333e-07  2.0561948250783477e-06  5.2505072419630581e-06  2.8482838766702532e-06  3.2721641806510429e-06  3.0475122559197991e-06  5.0757871108425502e-06  4.3311593188581733e-06  4.8287564843970716e-06  2.1753812545433601e-06  -1.7382397118688825e-06  2.2116671657677627e-07  1.9977501449725748e-06  1.9069367466048931e-06  1.1206990730877940e-06  1.5518763785051927e-06  1.0233020594973057e-06  -8.6977051896783606e-07  -1.8910824243921745e-06  -2.6547068354715785e-06  -1.7614898373145949e-06  4.4899445819523385e-08  -4.8805858056447740e-07  -1.1516276606495079e-06  -1.4583726417786052e-06  -2.7649983184324034e-06  -2.4974801240392233e-06  -8.2715227884662777e-06  -1.0861062009510889e-05  -3.9739541297887083e-06  -2.5717749639968917e-06  -3.2009095712563954e-06  -4.0333583634750898e-06  -6.4543739225953156e-06  -7.2680987348434896e-06  -7.3986782062339157e-06  -7.2294761455437530e-06  -5.8893274265128537e-06  -5.4953241109295875e-06  -6.8954877467419836e-06  -8.3787496238342250e-06  -6.9452056165959665e-06  -1.4663898911310506e-05  -1.9118833995699397e-05  -1.0476415848311989e-05  -8.8678588680059984e-06  -9.5517124474715834e-06  -1.0077474235691963e-05  -1.2772861260689151e-05  -1.3723897378915345e-05  -1.2912798432592815e-05  -1.2073105921515056e-05  -1.2111621812528035e-05  -1.2408902158925220e-05  -1.2281614686558337e-05  -1.2292460891799459e-05  -1.2735435444570971e-05  -1.3097900773386784e-05  -1.2681509947964780e-05  -1.3103106822508934e-05  -8.4210298652241391e-06  -6.0399981759648049e-06  2.5997916199263062e-05  6.9133477938545313e-06  1.2479366826733235e-05  1.0820833960298239e-05  1.3012223136266924e-05  1.3024770801379215e-05  1.2444385865489170e-05  1.2199193960078651e-05  1.2780223775485915e-05  1.0613601225603963e-05  1.7057847330404303e-05  2.0386950989611489e-05  1.0753152736423249e-05  8.8385313929676967e-06  1.0640919008846858e-05  9.9825989664605299e-06  1.0568133833140148e-05  1.2609760242987343e-05  1.2782178832936717e-05  1.1989367640145982e-05  1.1968245616653423e-05  1.1643497500195459e-05  1.1718110827736620e-05  1.2329557108353675e-05  1.1327603508115469e-05  8.5534145738378693e-06  6.3255411335392964e-06  6.1642434499068468e-06  4.9881075576773790e-06  9.2046731307070970e-06  1.3006098941280496e-05  7.0825173718507378e-06  1.1095679945458976e-05  1.3322008493605257e-05  7.5716044598142492e-06  8.6901068111639969e-06  8.5265292732770249e-06  7.3236063645534829e-06  7.7036764834622504e-06  6.5543702519281212e-06  5.1444299353880657e-06  6.4045810415592465e-06  8.9104773190450588e-06  8.1463529636184918e-06  8.4346864276192479e-06  8.3124481208739494e-06  4.1136683037416214e-06  7.3818422721864923e-06  8.7704201911414342e-06  4.9840252086351917e-06  4.7101197682811715e-06  5.2880233962216005e-06  2.7885493308401213e-05  1.2045355991335419e-04  -1.3555393049381941e-05  -8.9583876079936338e-05  -4.7063211936170660e-05  -1.4359676330907259e-04  -1.7566973065925739e-05  9.5397503065038555e-05  -7.6966818321313891e-05  1.8249888376117025e-05  1.7993346523264371e-04  9.6659236462748752e-05  1.2646393558619684e-04  -5.7010389055248675e-05  1.6112965241560484e-07  2.3927175633742432e-04  -1.1161000620123038e-04  -3.3897262400183988e-04  2.4178597259020467e-05  2.2138596671644276e-04  1.2184393412350528e-04  -1.9510459605788765e-05  3.9694018994443332e-07  1.9942536414636881e-05  1.0512040716561003e-05  1.4527094414684014e-05  -1.2046820416672569e-05  -3.5068222561329369e-05  -4.6062917129097283e-05  7.3237584939160782e-06  -1.2453778601581314e-05  -1.0553387115583510e-05  1.5023044342283682e-05  1.7875346001704912e-05  2.8022326254224270e-05  4.4519688560187461e-06  -1.8308387436539111e-05  5.5191342446834408e-06  1.0766504520105960e-05  -2.0432407332336138e-05  -2.0034741199274135e-05  -1.9587878731783739e-05  1.7565616605218550e-06  1.3052304242509629e-05  1.3611167252068068e-05  1.9162275182433898e-05  -9.0360343175984858e-06  1.1376775881509891e-05  -2.0592918593575807e-05  -3.8455190193139751e-05  -7.2795253670323879e-05  -1.1320494561270038e-04  -9.8557592647220956e-05  -1.4697233927912263e-04  5.2310650103205696e-05  -2.1953590861699430e-05  -8.0266249560150994e-05  -6.3729911447543740e-05  3.5586371629914241e-05  6.2240037058791393e-05  3.7333214245013030e-05  2.6694055572773368e-05  -1.6636031644981376e-06  1.4922501923537511e-06  -3.8382615666843576e-06  -1.7160117067705131e-05  -1.1810342588000005e-05  1.1376283316844873e-05  -2.9361556472112377e-05  1.6421269557238675e-04  3.7510781489650362e-02  8.5809341212502957e-02  1.6797588411475686e-01  2.2857888210306537e-01  4.1772196002011097e-01  2.8998362975841796e-01  1.2422402093025438e+00  5.4153523715258984e+00  6.6670360182557262e+00  7.6200015117924504e+00  1.0556989127325032e+01  1.1444033114067027e+01  8.5030992875081761e+00  9.3025031228407773e+00  6.7976775688856694e+00  4.9139423101866084e+00  1.4011643500180599e+00  4.3485781894701708e-01  3.6675688006150337e-01  2.5870346718065335e-01  1.5376505971360691e-01  9.2106882483327948e-02  3.9731122607451146e-02  -1.8664758107386919e-04  1.9900307268045243e-04  -4.5362624692184656e-05  -3.0858090566423110e-05  3.9143222071150695e-05  -1.4681401609114383e-05  -6.2766969964111501e-05  -8.1774333762056045e-05  -1.0858964475019639e-04  -3.9449286099541947e-05  -1.3344735078914968e-04  -6.8347381916184322e-08  2.0086903890639790e-05  -1.0064882264342012e-05  -3.7185260958464355e-05  -4.3531431345019368e-05  -1.1103893751562820e-05  9.8529949412610857e-06  -1.4711236126160928e-05  -1.3377211175499167e-05  -2.1037527855914305e-05  -2.2998509581624644e-05  -1.8563591562172130e-05  4.2947362582433481e-06  4.5755154441283553e-06  -2.0279486676751593e-05  -1.7405358162397029e-05  -2.4888969609591926e-05  -7.2090041028228406e-06  2.0395475229218638e-05  3.3223298208676398e-05  3.6763095614363102e-06  -2.5339989981065158e-05  -2.2262360341391936e-05  -4.0081562119982321e-05  -5.7174186772806129e-05  -4.8910062707082342e-05  1.4156585001132451e-05  5.4712227858725060e-05  6.7710359584761219e-05  6.8618798057753143e-07  -4.6010450362887338e-05  -4.2977339563622885e-05  -5.0087474651942767e-05  -3.6691416934647646e-05  -8.8082940644701156e-06  4.9513867809310745e-05  5.3243779763847850e-05  2.1859655394968413e-07  -7.8293093612810230e-05  2.1196901285529263e-04  1.6701942169204979e-04  -2.2053214703688525e-04  -1.9570026951796514e-04  -2.5582148804504480e-04  -1.3465345066616995e-04  -8.0854243781975654e-05  -1.0023010081849717e-04  -5.6651224923116736e-05  -8.6079234753535852e-05  -1.3068282087274561e-04  -8.5612250303058980e-05  4.1956020452860477e-05  2.6291665620391215e-05  -6.8111552916408987e-05  -4.6804124171703269e-05  -7.2202848552670062e-05  -4.6339949649056486e-05  1.6194584952504973e-05  2.0692682443755872e-05  -2.2626677987297766e-05  1.3441076292637136e-05  -7.5125662899374976e-06  -4.8712614884520804e-06  -6.6833367979578363e-06  -6.5814544000393118e-06  -4.3966896414979806e-06  -3.4671954965820745e-06  -3.1059393757279265e-06  -3.1085221579833826e-06  -3.7407863741683857e-06  -3.7690902961202507e-06  -3.3921080631947132e-06  -3.0368721980316894e-06  -3.9140322287217141e-06  -5.1894383107120067e-06  -3.6584229777638943e-06  -2.3693535092585741e-06  -3.3409370698739002e-06  -4.1682203601942352e-06  -4.3938828063999318e-06  -3.4048825006548461e-06  -3.5923267874075594e-06  -2.1523919266003800e-06  -4.9212250654544552e-07  -3.2390487542191751e-06  -3.6116873380111903e-06  -2.3776153405739483e-06  1.7043672494678513e-06  1.2254342200623751e-07  -3.3987935799400868e-06  -3.6049721153051809e-06  -5.1298188196402250e-06  -4.4269841580152479e-06  -3.8641874451163911e-06  -2.3313510595732222e-06  -1.7116120501269547e-06  -1.5386700749652360e-06  -1.6507460590739132e-06  -9.1477344116955399e-07  -8.5009106758926114e-07  -2.3119322235990094e-06  -2.4553309385326815e-06  -1.9245316048006442e-06  -1.5588613357873172e-06  -1.0512347070329005e-06  -4.5452350228612558e-07  -8.1466973163956038e-07  -1.2126764582110652e-07  -1.3544414141609979e-07  -8.5889666437109817e-07  -2.7225310162031668e-07  -3.6981817458575749e-07  -8.5789898582473740e-09  2.1666868893253814e-07  -6.0439984289198898e-08  -3.3418129642202812e-10  1.7592668133187851e-07  4.5459535026312801e-07  -2.8578757466046771e-09  2.4157975208279498e-06  5.2487177061980099e-06  2.4811262162101892e-06  -1.8113307422957739e-07  3.2478666944239633e-07  1.5541823144205478e-07  2.4763783833677450e-06  3.6931108453031879e-06  8.5807565761567510e-07  9.0301924485674694e-07  3.8038728776937949e-07  2.4108945261164453e-06  4.6872088163406059e-06  1.4452622537843421e-06  3.8317830102863559e-06  9.5432084892820011e-06  6.9080171325288675e-06  2.0904684849210841e-06  1.7665242074528166e-06  2.3501060297218257e-06  2.9569408379295198e-06  3.8536168589865297e-06  3.9561783161375218e-06  4.1861454383732132e-06  5.0878076417508641e-06  5.9030414827113226e-06  6.3611751079601447e-06  7.2980699647744561e-06  9.6897954436511579e-06  1.0472477634269313e-05  7.3516171408991221e-06  5.1740306093456660e-06  5.8411284499860565e-06  6.2336149872920326e-06  5.6479079278721833e-06  4.3237074882120029e-06  4.8384450843882119e-06  8.7665107709598549e-06  1.1478996504887077e-05  1.5060806698741017e-05  1.6222817854976347e-05  2.1502501262438514e-05  2.4761791651624743e-05  2.2496653393058662e-05  1.7544115348911324e-05  6.9584214508195008e-06  1.0201688108399019e-05  1.9003031441201128e-05  2.4996053736835032e-05  2.0854073680537065e-05  7.4800034975458838e-06  1.2055819371854375e-05  2.5061581286480257e-05  2.7077826114638826e-05  2.9079838294680434e-05  2.3069919245386945e-05  8.2472756778764389e-06  1.3386383842686614e-05  3.0986221050880994e-05  2.1772959548172714e-05  1.7361933192199624e-05  2.0005649396514162e-05  1.7072837059906806e-05  2.8708849805587746e-05  3.6442193247666168e-05  2.2937234785866541e-05  1.9559569161013672e-05  2.1911564262190182e-05  1.9319216665898502e-05  3.4242903745035996e-05  4.2030745741144939e-05  3.0463646745578377e-05  1.1081041102205802e-05  1.9255231494539563e-05  4.1330896387153739e-05  2.9286953768711779e-05  1.8025229703456476e-05  3.7959918591087927e-05  3.0246326547182820e-05  2.1206656153302478e-05  4.3981176631886165e-05  3.1103492538350901e-05  2.5399234232014161e-05  2.9328001008207994e-05  3.1101156069579738e-05  3.8042805110276048e-05  2.2693074263071754e-05  1.5169778162494265e-05  3.8819962496531351e-05  4.5191990706111516e-05  2.1160661198249551e-05  1.8808959776957922e-05  2.5132134355626718e-05  3.1549709712121658e-05  2.6866750281737641e-05  1.6554005686516017e-05  2.5838388738617989e-05  2.0158519247646927e-05  1.6868832707047354e-05  2.8013952236522856e-05  2.5166080089798711e-05  2.6405533965395417e-05  2.8496377355961304e-05  3.0674449829097221e-05  3.3360191788451066e-05  3.6429238390282598e-05  3.8426789419888543e-05  3.9748234116338017e-05  4.1482028498055566e-05  4.2837838309543572e-05  4.4353723395375943e-05  4.6507533354498195e-05  4.7917516385423580e-05  4.9624302124590826e-05  5.2066288851693987e-05  5.3514691590729993e-05  5.5259021158047313e-05  5.7756240317915159e-05  5.9105927853749918e-05  6.2360600890201752e-05  6.6956763983377877e-05  6.1375807465350240e-05  4.7058485573631660e-05  4.9812065176817770e-05  7.6991396079475433e-05  1.0555783153344955e-04  1.1769201323762067e-04  1.1728886890511288e-04  1.1529481448798450e-04  1.0814889100376279e-04  8.3650152497015680e-05  1.0775431469109885e-04  1.0793555570816765e-04  5.7554100704315477e-05  7.5299701883675460e-05  9.3982047050557416e-05  8.5682161052916850e-05  8.5351200751325790e-05  8.1182200163305659e-05  7.3856731103120961e-05  7.1356920540498184e-05  7.0889879260050529e-05  6.1422769338859663e-05  3.6057544159574426e-05  8.1465613380357459e-06  7.5187869490775076e-06  1.8064514427038207e-05  8.8489304971204753e-06  3.0600467155863811e-06  5.2288289220050207e-06  -1.4231181381977322e-05  -4.4314410348081269e-05  -5.1592362304036060e-05  -3.8733790075575123e-05  -2.9396907519810654e-05  -2.6658469746408006e-05  -2.7735482051674004e-05  -3.3786762058156329e-05  -4.0838158193664315e-05  -4.5235543336785933e-05  -4.7149387928954400e-05  -4.7181010945758393e-05  -4.7269946077003032e-05  -4.7991481564946748e-05  -4.7950948362978792e-05  -4.7401974581775554e-05  -4.7260721911298208e-05  -4.7001805348042316e-05  -4.5974953194256650e-05  -4.5236210002333643e-05  -4.4914678572020979e-05  -5.0628998241800368e-05  -6.0286497967468908e-05  -5.8409725957639152e-05  -4.7561734869419102e-05  -4.2289002981766148e-05  -3.7159347776972911e-05  -3.5918569846439029e-05  -4.5716510548837887e-05  -4.4824943428156977e-05  -2.5304879745481312e-05  -1.3641907536965117e-05  -2.0534905037033001e-05  -2.9683108081819966e-05  -2.9594695565210079e-05  -2.3781722061517021e-05  -1.9652796608082640e-05  -1.8846473775317571e-05  -1.7810159393096104e-05  -1.6375632519900167e-05  -1.6914808959519127e-05  -1.7390910926061179e-05  -1.6149565594506631e-05  -1.4801530427916269e-05  -1.3769091413687219e-05  -1.3569768686847989e-05  -1.3161187148308550e-05  -9.6914141454300632e-06  -8.1162084419025762e-06  -1.3679184923511107e-05  -1.7559241284301078e-05  -1.2854196282601088e-05  -7.8350258427739796e-06  -7.8247188827887227e-06  -8.4769089211373241e-06  -7.8649482128006035e-06  -7.2340464967138563e-06  -6.9333869588979370e-06  -7.5547832730830150e-06  5.7031107714909918e-06  2.7643039786628729e-06  -1.2042388797250785e-05  -3.0010040382126842e-06  -5.8937258655368699e-06  -4.1473816449065254e-06  -5.9956965478713982e-06  1.0410938310462298e-05  5.9730877863206757e-06  -5.6279279533595138e-06  -2.5776222745342438e-06  -2.8402079244729869e-06  -2.9496132521475365e-06  -2.4167868308521691e-06  -1.7315246433549748e-06  -2.4362216792789064e-06  -3.7706985385378517e-06  -5.1112086625440541e-06  -5.5223659431141704e-06  -3.2897518288785468e-06  -1.5610676860861130e-06  7.2097263975326572e-06  3.7709283155547461e-06  -6.4987643919664028e-07  7.5057064257942288e-06  2.3858856518553318e-06  -2.0353989230299549e-06  -7.5629223870447314e-07  -8.5541205122297251e-07  -1.6866570072197782e-06  4.8737202509422979e-06  1.5716860888297752e-05  7.9327326944481655e-05  -8.0460831338007710e-05  -2.5931627501126201e-05  1.3002081495412245e-04  1.4214875503462714e-04  -4.7288896876016093e-05  -1.8577061591729040e-04  2.8504287927404406e-05  1.7644905027434146e-04  7.6927496734880487e-05  5.9907204746759587e-05  1.2364711769431480e-04  1.4402855740360446e-04  1.2021159819775989e-04  1.4264589886231848e-04  1.9203216760884393e-04  2.1646001834487973e-04  -1.0339960901212147e-04  -4.1709617487839869e-05  2.8550551056315645e-04  -9.8642546422421249e-05  -6.2857852848858861e-05  -2.1124071903182952e-05  -2.2054889928255243e-05  -1.07498164