<?xml version="1.0"?>
<VTKFile type="UnstructuredGrid"  version="0.1"  >
<UnstructuredGrid>
<Piece  NumberOfPoints="14844" NumberOfCells="29085">
<Points>
<DataArray  type="Float64"  NumberOfComponents="3"  format="ascii">0 0 0  5 0 0  5 1 0  0 1 0  0 0.65 0  0 0.35 0  0.01999999999998493 0 0  0.03999999999996989 0 0  0.05999999999995592 0 0  0.07999999999994194 0 0  0.09999999999992795 0 0  0.1199999999999136 0 0  0.1399999999998968 0 0  0.1599999999998791 0 0  0.1799999999998568 0 0  0.1999999999998338 0 0  0.2199999999998087 0 0  0.2399999999997852 0 0  0.2599999999997656 0 0  0.279999999999748 0 0  0.299999999999734 0 0  0.31999999999972 0 0  0.339999999999706 0 0  0.3599999999996922 0 0  0.3799999999996782 0 0  0.3999999999996642 0 0  0.4199999999996502 0 0  0.4399999999996362 0 0  0.4599999999996223 0 0  0.4799999999996083 0 0  0.4999999999995943 0 0  0.5199999999995804 0 0  0.5399999999995663 0 0  0.5599999999995524 0 0  0.5799999999995384 0 0  0.5999999999995166 0 0  0.6199999999994916 0 0  0.6399999999994498 0 0  0.6599999999994024 0 0  0.6799999999993465 0 0  0.699999999999288 0 0  0.7199999999992297 0 0  0.7399999999991713 0 0  0.7599999999991129 0 0  0.7799999999990546 0 0  0.7999999999989961 0 0  0.8199999999989377 0 0  0.8399999999988794 0 0  0.859999999998821 0 0  0.8799999999987627 0 0  0.8999999999987042 0 0  0.9199999999986458 0 0  0.9399999999985874 0 0  0.9599999999985291 0 0  0.9799999999984708 0 0  0.9999999999984123 0 0  1.019999999998354 0 0  1.039999999998296 0 0  1.059999999998237 0 0  1.079999999998179 0 0  1.09999999999812 0 0  1.119999999998062 0 0  1.139999999998004 0 0  1.159999999997945 0 0  1.179999999997887 0 0  1.199999999997829 0 0  1.21999999999777 0 0  1.239999999997712 0 0  1.259999999997654 0 0  1.279999999997595 0 0  1.299999999997537 0 0  1.319999999997478 0 0  1.33999999999742 0 0  1.359999999997361 0 0  1.379999999997303 0 0  1.399999999997245 0 0  1.419999999997187 0 0  1.439999999997128 0 0  1.45999999999707 0 0  1.479999999997011 0 0  1.499999999996953 0 0  1.519999999996895 0 0  1.539999999996836 0 0  1.559999999996778 0 0  1.579999999996719 0 0  1.599999999996661 0 0  1.619999999996602 0 0  1.639999999996544 0 0  1.659999999996486 0 0  1.679999999996428 0 0  1.699999999996369 0 0  1.719999999996311 0 0  1.739999999996252 0 0  1.759999999996194 0 0  1.779999999996136 0 0  1.799999999996077 0 0  1.819999999996019 0 0  1.83999999999596 0 0  1.859999999995902 0 0  1.879999999995844 0 0  1.899999999995785 0 0  1.919999999995727 0 0  1.939999999995669 0 0  1.95999999999561 0 0  1.979999999995552 0 0  1.999999999995511 0 0  2.019999999995497 0 0  2.039999999995502 0 0  2.059999999995533 0 0  2.079999999995563 0 0  2.099999999995593 0 0  2.119999999995624 0 0  2.139999999995654 0 0  2.159999999995684 0 0  2.179999999995715 0 0  2.199999999995745 0 0  2.219999999995776 0 0  2.239999999995806 0 0  2.259999999995836 0 0  2.279999999995867 0 0  2.299999999995897 0 0  2.319999999995928 0 0  2.339999999995958 0 0  2.359999999995988 0 0  2.379999999996019 0 0  2.399999999996049 0 0  2.41999999999608 0 0  2.43999999999611 0 0  2.45999999999614 0 0  2.479999999996171 0 0  2.499999999996201 0 0  2.519999999996231 0 0  2.539999999996262 0 0  2.559999999996292 0 0  2.579999999996323 0 0  2.599999999996353 0 0  2.619999999996384 0 0  2.639999999996414 0 0  2.659999999996445 0 0  2.679999999996475 0 0  2.699999999996505 0 0  2.719999999996535 0 0  2.739999999996567 0 0  2.759999999996596 0 0  2.779999999996627 0 0  2.799999999996657 0 0  2.819999999996687 0 0  2.839999999996718 0 0  2.859999999996749 0 0  2.879999999996779 0 0  2.899999999996809 0 0  2.91999999999684 0 0  2.93999999999687 0 0  2.959999999996901 0 0  2.979999999996931 0 0  2.999999999996961 0 0  3.019999999996991 0 0  3.039999999997022 0 0  3.059999999997052 0 0  3.079999999997083 0 0  3.099999999997114 0 0  3.119999999997143 0 0  3.139999999997174 0 0  3.159999999997204 0 0  3.179999999997234 0 0  3.199999999997265 0 0  3.219999999997296 0 0  3.239999999997325 0 0  3.259999999997356 0 0  3.279999999997386 0 0  3.299999999997417 0 0  3.319999999997447 0 0  3.339999999997478 0 0  3.359999999997508 0 0  3.379999999997538 0 0  3.399999999997569 0 0  3.419999999997599 0 0  3.43999999999763 0 0  3.45999999999766 0 0  3.47999999999769 0 0  3.49999999999772 0 0  3.519999999997751 0 0  3.539999999997781 0 0  3.559999999997812 0 0  3.579999999997842 0 0  3.599999999997872 0 0  3.619999999997903 0 0  3.639999999997933 0 0  3.659999999997964 0 0  3.679999999997994 0 0  3.699999999998025 0 0  3.719999999998055 0 0  3.739999999998085 0 0  3.759999999998116 0 0  3.779999999998147 0 0  3.799999999998176 0 0  3.819999999998207 0 0  3.839999999998238 0 0  3.859999999998267 0 0  3.879999999998298 0 0  3.899999999998329 0 0  3.919999999998359 0 0  3.939999999998389 0 0  3.95999999999842 0 0  3.97999999999845 0 0  3.99999999999848 0 0  4.019999999998511 0 0  4.039999999998542 0 0  4.059999999998571 0 0  4.079999999998602 0 0  4.099999999998633 0 0  4.119999999998663 0 0  4.139999999998693 0 0  4.159999999998724 0 0  4.179999999998754 0 0  4.199999999998784 0 0  4.219999999998815 0 0  4.239999999998845 0 0  4.259999999998875 0 0  4.279999999998906 0 0  4.299999999998937 0 0  4.319999999998966 0 0  4.339999999998997 0 0  4.359999999999028 0 0  4.379999999999058 0 0  4.399999999999088 0 0  4.419999999999119 0 0  4.439999999999149 0 0  4.459999999999179 0 0  4.47999999999921 0 0  4.49999999999924 0 0  4.51999999999927 0 0  4.539999999999301 0 0  4.559999999999331 0 0  4.579999999999361 0 0  4.599999999999392 0 0  4.619999999999423 0 0  4.639999999999453 0 0  4.659999999999483 0 0  4.679999999999513 0 0  4.699999999999544 0 0  4.719999999999574 0 0  4.739999999999605 0 0  4.759999999999635 0 0  4.779999999999665 0 0  4.799999999999695 0 0  4.819999999999726 0 0  4.839999999999756 0 0  4.859999999999787 0 0  4.879999999999818 0 0  4.899999999999848 0 0  4.919999999999878 0 0  4.939999999999908 0 0  4.95999999999994 0 0  4.979999999999969 0 0  5 0.01999999999996237 0  5 0.03999999999992186 0  5 0.05999999999987837 0  5 0.07999999999984518 0  5 0.09999999999981463 0  5 0.1199999999997832 0  5 0.1399999999997328 0  5 0.1599999999996745 0  5 0.1799999999996162 0  5 0.1999999999995579 0  5 0.2199999999994996 0  5 0.2399999999994413 0  5 0.259999999999383 0  5 0.2799999999993247 0  5 0.2999999999992664 0  5 0.3199999999992081 0  5 0.3399999999991498 0  5 0.3599999999990915 0  5 0.3799999999990332 0  5 0.3999999999989749 0  5 0.4199999999989167 0  5 0.4399999999988584 0  5 0.4599999999988 0  5 0.4799999999987418 0  5 0.4999999999986943 0  5 0.5199999999987361 0  5 0.5399999999987888 0  5 0.5599999999988415 0  5 0.5799999999988942 0  5 0.5999999999989468 0  5 0.6199999999989995 0  5 0.6399999999990521 0  5 0.6599999999991049 0  5 0.6799999999991574 0  5 0.6999999999992101 0  5 0.7199999999992628 0  5 0.7399999999993154 0  5 0.7599999999993681 0  5 0.7799999999994207 0  5 0.7999999999994734 0  5 0.8199999999995261 0  5 0.8399999999995788 0  5 0.8599999999996314 0  5 0.8799999999996841 0  5 0.8999999999997367 0  5 0.9199999999997894 0  5 0.939999999999842 0  5 0.9599999999998947 0  5 0.9799999999999475 0  4.98 1 0  4.96 1 0  4.94 1 0  4.92 1 0  4.899999999999999 1 0  4.88 1 0  4.859999999999999 1 0  4.84 1 0  4.819999999999999 1 0  4.8 1 0  4.779999999999999 1 0  4.76 1 0  4.739999999999999 1 0  4.72 1 0  4.699999999999999 1 0  4.68 1 0  4.659999999999999 1 0  4.64 1 0  4.619999999999999 1 0  4.6 1 0  4.579999999999999 1 0  4.56 1 0  4.539999999999999 1 0  4.52 1 0  4.499999999999999 1 0  4.48 1 0  4.459999999999999 1 0  4.44 1 0  4.419999999999999 1 0  4.399999999999999 1 0  4.379999999999999 1 0  4.359999999999999 1 0  4.339999999999999 1 0  4.319999999999999 1 0  4.299999999999999 1 0  4.279999999999999 1 0  4.259999999999999 1 0  4.239999999999998 1 0  4.219999999999999 1 0  4.199999999999998 1 0  4.179999999999999 1 0  4.159999999999998 1 0  4.139999999999999 1 0  4.119999999999998 1 0  4.099999999999999 1 0  4.079999999999998 1 0  4.059999999999999 1 0  4.039999999999998 1 0  4.019999999999998 1 0  3.999999999999998 1 0  3.979999999999998 1 0  3.959999999999998 1 0  3.939999999999998 1 0  3.919999999999998 1 0  3.899999999999998 1 0  3.879999999999998 1 0  3.859999999999998 1 0  3.839999999999998 1 0  3.819999999999998 1 0  3.799999999999998 1 0  3.779999999999998 1 0  3.759999999999998 1 0  3.739999999999998 1 0  3.719999999999998 1 0  3.699999999999998 1 0  3.679999999999998 1 0  3.659999999999997 1 0  3.639999999999998 1 0  3.619999999999997 1 0  3.599999999999997 1 0  3.579999999999997 1 0  3.559999999999998 1 0  3.539999999999997 1 0  3.519999999999998 1 0  3.499999999999998 1 0  3.479999999999998 1 0  3.459999999999998 1 0  3.439999999999998 1 0  3.419999999999997 1 0  3.399999999999998 1 0  3.379999999999998 1 0  3.359999999999998 1 0  3.339999999999998 1 0  3.319999999999998 1 0  3.299999999999998 1 0  3.279999999999998 1 0  3.259999999999998 1 0  3.239999999999998 1 0  3.219999999999998 1 0  3.199999999999998 1 0  3.179999999999998 1 0  3.159999999999998 1 0  3.139999999999998 1 0  3.119999999999998 1 0  3.099999999999998 1 0  3.079999999999998 1 0  3.059999999999998 1 0  3.039999999999998 1 0  3.019999999999998 1 0  2.999999999999998 1 0  2.979999999999998 1 0  2.959999999999998 1 0  2.939999999999998 1 0  2.919999999999998 1 0  2.899999999999998 1 0  2.879999999999998 1 0  2.859999999999998 1 0  2.839999999999998 1 0  2.819999999999998 1 0  2.799999999999998 1 0  2.779999999999998 1 0  2.759999999999998 1 0  2.739999999999998 1 0  2.719999999999998 1 0  2.699999999999998 1 0  2.679999999999998 1 0  2.659999999999998 1 0  2.639999999999998 1 0  2.619999999999998 1 0  2.599999999999998 1 0  2.579999999999998 1 0  2.559999999999998 1 0  2.539999999999998 1 0  2.519999999999998 1 0  2.499999999999998 1 0  2.479999999999998 1 0  2.459999999999998 1 0  2.439999999999998 1 0  2.419999999999998 1 0  2.399999999999999 1 0  2.379999999999999 1 0
[...]
<PointData  Vectors="Velocity"> 
<DataArray  type="Float64"  Name="Velocity"  NumberOfComponents="3" format="ascii">0.0000000000000000e+00 0.0000000000000000e+00 0.0000000000000000e+00  9.6071592483219661e+01 7.4747419844730976e+00 0.0000000000000000e+00  1.0279137158430726e+02 7.8051097829245757e+00 0.0000000000000000e+00  0.0000000000000000e+00 0.0000000000000000e+00 0.0000000000000000e+00  2.0000000000000000e+02 1.0000000000000000e+01 0.0000000000000000e+00  0.0000000000000000e+00 0.0000000000000000e+00 0.0000000000000000e+00  1.5300446077017654e-01 6.4234353269707265e+00 0.0000000000000000e+00  4.1032586859400005e-01 1.1850873325473181e+01 0.0000000000000000e+00  7.2517820855891379e-01 1.6489643839932636e+01 0.0000000000000000e+00  1.1092799018643706e+00 2.0408939179097406e+01 0.0000000000000000e+00  1.5741879191495931e+00 2.3657468513006318e+01 0.0000000000000000e+00  2.1317975427195650e+00 2.6285363599311175e+01 0.0000000000000000e+00  2.7914332572603309e+00 2.8347619575231136e+01 0.0000000000000000e+00  3.5575802042963200e+00 2.9903767974589680e+01 0.0000000000000000e+00  4.4310118643697924e+00 3.1015543708907121e+01 0.0000000000000000e+00  5.4078681179568138e+00 3.1744179885990757e+01 0.0000000000000000e+00  6.4815002702021429e+00 3.2148548101284199e+01 0.0000000000000000e+00  7.6426971526704817e+00 3.2283503094139803e+01 0.0000000000000000e+00  8.8808086411531306e+00 3.2198895710695268e+01 0.0000000000000000e+00  1.0184670034643087e+01 3.1938999909928938e+01 0.0000000000000000e+00  1.1543169189929959e+01 3.1542307386360996e+01 0.0000000000000000e+00  1.2945647717345249e+01 3.1041284307311077e+01 0.0000000000000000e+00  1.4382471888952843e+01 3.0463045596128005e+01 0.0000000000000000e+00  1.5844492848956170e+01 2.9829715856452424e+01 0.0000000000000000e+00  1.7324186781946221e+01 2.9159405629261695e+01 0.0000000000000000e+00  1.8814569401338890e+01 2.8466251306908930e+01 0.0000000000000000e+00  2.0309712479832914e+01 2.7761534711865391e+01 0.0000000000000000e+00  2.1804654803268882e+01 2.7053850225578095e+01 0.0000000000000000e+00  2.3295126637016722e+01 2.6349906845889929e+01 0.0000000000000000e+00  2.4777542336771429e+01 2.5654706557191513e+01 0.0000000000000000e+00  2.6249031850222501e+01 2.4971895111801480e+01 0.0000000000000000e+00  2.7707116954344844e+01 2.4304125284979950e+01 0.0000000000000000e+00  2.9149832161646305e+01 2.3653235811431639e+01 0.0000000000000000e+00  3.0575581966039763e+01 2.3020418047066510e+01 0.0000000000000000e+00  3.1983063213525885e+01 2.2406412510828030e+01 0.0000000000000000e+00  3.3371262083913997e+01 2.1811578035692161e+01 0.0000000000000000e+00  3.4739356446798659e+01 2.1236023895883502e+01 0.0000000000000000e+00  3.6086728027523876e+01 2.0679645648295089e+01 0.0000000000000000e+00  3.7412883580095667e+01 2.0142215295248331e+01 0.0000000000000000e+00  3.8717473300697961e+01 1.9623388797450602e+01 0.0000000000000000e+00  4.0000212543349249e+01 1.9122779120179615e+01 0.0000000000000000e+00  4.1260967403471142e+01 1.8639925985824320e+01 0.0000000000000000e+00  4.2499562134306451e+01 1.8174379300659886e+01 0.0000000000000000e+00  4.3715960393221131e+01 1.7725656551466333e+01 0.0000000000000000e+00  4.4910177840621451e+01 1.7293271721767265e+01 0.0000000000000000e+00  4.6082158239765349e+01 1.6876741503864771e+01 0.0000000000000000e+00  4.7232039875732234e+01 1.6475625481183783e+01 0.0000000000000000e+00  4.8359835586061671e+01 1.6089445243060961e+01 0.0000000000000000e+00  4.9465651491019734e+01 1.5717742491405099e+01 0.0000000000000000e+00  5.0549638077127149e+01 1.5360112636157645e+01 0.0000000000000000e+00  5.1611905785932635e+01 1.5016119811232125e+01 0.0000000000000000e+00  5.2652585666906319e+01 1.4685343071305995e+01 0.0000000000000000e+00  5.3671900939846516e+01 1.4367404974683284e+01 0.0000000000000000e+00  5.4669955042475522e+01 1.4061898539603440e+01 0.0000000000000000e+00  5.5647010565434769e+01 1.3768466555652250e+01 0.0000000000000000e+00  5.6603195917245429e+01 1.3486716673280075e+01 0.0000000000000000e+00  5.7538793524706335e+01 1.3216316376049653e+01 0.0000000000000000e+00  5.8453977089054845e+01 1.2956897204272162e+01 0.0000000000000000e+00  5.9348980310477849e+01 1.2708110956411057e+01 0.0000000000000000e+00  6.0224086503620647e+01 1.2469637163846020e+01 0.0000000000000000e+00  6.1079487933368725e+01 1.2241129313905141e+01 0.0000000000000000e+00  6.1915500927622553e+01 1.2022282139055404e+01 0.0000000000000000e+00  6.2732335341704697e+01 1.1812757719415501e+01 0.0000000000000000e+00  6.3530319953255074e+01 1.1612268654570734e+01 0.0000000000000000e+00  6.4309697232420447e+01 1.1420496196846395e+01 0.0000000000000000e+00  6.5070757433364761e+01 1.1237136201503183e+01 0.0000000000000000e+00  6.5813824102776991e+01 1.1061913302228598e+01 0.0000000000000000e+00  6.6539149531452438e+01 1.0894523928450074e+01 0.0000000000000000e+00  6.7247081286268752e+01 1.0734704355100646e+01 0.0000000000000000e+00  6.7937883073857748e+01 1.0582163708331878e+01 0.0000000000000000e+00  6.8611904162296113e+01 1.0436649698311601e+01 0.0000000000000000e+00  6.9269418657133002e+01 1.0297885005108769e+01 0.0000000000000000e+00  6.9910777188156757e+01 1.0165628817219114e+01 0.0000000000000000e+00  7.0536260733092206e+01 1.0039617032960722e+01 0.0000000000000000e+00  7.1146219630270295e+01 9.9196208375356694e+00 0.0000000000000000e+00  7.1740938156491950e+01 9.8053876931836879e+00 0.0000000000000000e+00  7.2320764988791140e+01 9.6967042120571580e+00 0.0000000000000000e+00  7.2885995638006420e+01 9.5933367136562371e+00 0.0000000000000000e+00  7.3436950528541090e+01 9.4950596390857314e+00 0.0000000000000000e+00  7.3973953580748272e+01 9.4016785490490502e+00 0.0000000000000000e+00  7.4497303259360507e+01 9.3129762656485511e+00 0.0000000000000000e+00  7.5007321451852462e+01 9.2287577056693895e+00 0.0000000000000000e+00  7.5504311314717626e+01 9.1488293086623393e+00 0.0000000000000000e+00  7.5988580300652217e+01 9.0730048918120492e+00 0.0000000000000000e+00  7.6460428891068105e+01 9.0011041920714536e+00 0.0000000000000000e+00  7.6920157715314701e+01 8.9329525058245576e+00 0.0000000000000000e+00  7.7368060259053379e+01 8.8683815505520389e+00 0.0000000000000000e+00  7.7804429410216130e+01 8.8072285000465858e+00 0.0000000000000000e+00  7.8229550815551661e+01 8.7493366883402999e+00 0.0000000000000000e+00  7.8643708816520189e+01 8.6945547667406107e+00 0.0000000000000000e+00  7.9047180670907508e+01 8.6427371809639535e+00 0.0000000000000000e+00  7.9440241142927405e+01 8.5937430874759038e+00 0.0000000000000000e+00  7.9823157260260587e+01 8.5474380400788572e+00 0.0000000000000000e+00  8.0196194316192120e+01 8.5036917659559421e+00 0.0000000000000000e+00  8.0559617278708330e+01 8.4623831758886077e+00 0.0000000000000000e+00  8.0913670778529948e+01 8.4233842015285862e+00 0.0000000000000000e+00  8.1258613516916412e+01 8.3865889616041613e+00 0.0000000000000000e+00  8.1594682261977056e+01 8.3518817168281458e+00 0.0000000000000000e+00  8.1922118173009409e+01 8.3191572874968021e+00 0.0000000000000000e+00  8.2241161010380068e+01 8.2883178217350029e+00 0.0000000000000000e+00  8.2552031263907324e+01 8.2592589673518138e+00 0.0000000000000000e+00  8.2854961388707309e+01 8.2318964408650093e+00 0.0000000000000000e+00  8.3150161280085783e+01 8.2061347846847532e+00 0.0000000000000000e+00  8.3437850378199201e+01 8.1818917346771496e+00 0.0000000000000000e+00  8.3718235602160277e+01 8.1590850790622138e+00 0.0000000000000000e+00  8.3991520732391194e+01 8.1376375064493729e+00 0.0000000000000000e+00  8.4257904216022737e+01 8.1174744479430458e+00 0.0000000000000000e+00  8.4517579801200384e+01 8.0985248399392873e+00 0.0000000000000000e+00  8.4770735139730675e+01 8.0807220371618271e+00 0.0000000000000000e+00  8.5017556943641225e+01 8.0640011229218018e+00 0.0000000000000000e+00  8.5258224850798115e+01 8.0483025915373272e+00 0.0000000000000000e+00  8.5492910270350492e+01 8.0335609037017601e+00 0.0000000000000000e+00  8.5721785709253638e+01 8.0197296630940489e+00 0.0000000000000000e+00  8.5945014319270058e+01 8.0067483075037185e+00 0.0000000000000000e+00  8.6162759024657120e+01 7.9945725382813029e+00 0.0000000000000000e+00  8.6375177080073300e+01 7.9831503847907346e+00 0.0000000000000000e+00  8.6582418887342911e+01 7.9724359873119672e+00 0.0000000000000000e+00  8.6784635891891313e+01 7.9623900179062472e+00 0.0000000000000000e+00  8.6981968613530412e+01 7.9529654672631249e+00 0.0000000000000000e+00  8.7174560837985823e+01 7.9441299619044772e+00 0.0000000000000000e+00  8.7362545506939981e+01 7.9358397713156412e+00 0.0000000000000000e+00  8.7546058072205113e+01 7.9280663115466350e+00 0.0000000000000000e+00  8.7725224790783699e+01 7.9207702403390385e+00 0.0000000000000000e+00  8.7900171415873587e+01 7.9139250941310557e+00 0.0000000000000000e+00  8.8071020669735347e+01 7.9074985827061379e+00 0.0000000000000000e+00  8.8237890087228109e+01 7.9014623346689277e+00 0.0000000000000000e+00  8.8400889337695588e+01 7.8957894298396862e+00 0.0000000000000000e+00  8.8560136424991271e+01 7.8904563699668513e+00 0.0000000000000000e+00  8.8715735721374699e+01 7.8854379841148976e+00 0.0000000000000000e+00  8.8867792809026554e+01 7.8807125529494559e+00 0.0000000000000000e+00  8.9016408412610829e+01 7.8762580987326052e+00 0.0000000000000000e+00  8.9161681073542312e+01 7.8720545946906650e+00 0.0000000000000000e+00  8.9303707120076012e+01 7.8680841805644972e+00 0.0000000000000000e+00  8.9442578925701639e+01 7.8643282283580769e+00 0.0000000000000000e+00  8.9578386372063477e+01 7.8607705652657911e+00 0.0000000000000000e+00  8.9711216978752432e+01 7.8573954524292855e+00 0.0000000000000000e+00  8.9841154784575664e+01 7.8541868424083008e+00 0.0000000000000000e+00  8.9968282506719078e+01 7.8511331471021970e+00 0.0000000000000000e+00  9.0092679941038256e+01 7.8482200730550513e+00 0.0000000000000000e+00  9.0214424111382684e+01 7.8454352535757126e+00 0.0000000000000000e+00  9.0333588306320635e+01 7.8427677019953874e+00 0.0000000000000000e+00  9.0450247166753030e+01 7.8402066916789046e+00 0.0000000000000000e+00  9.0564470060719160e+01 7.8377421870292796e+00 0.0000000000000000e+00  9.0676325237758491e+01 7.8353649024363374e+00 0.0000000000000000e+00  9.0785878825745982e+01 7.8330660960601373e+00 0.0000000000000000e+00  9.0893194783503333e+01 7.8308377047286459e+00 0.0000000000000000e+00  9.0998335397229098e+01 7.8286722926357797e+00 0.0000000000000000e+00  9.1101360442740187e+01 7.8265622274022464e+00 0.0000000000000000e+00  9.1202328793864510e+01 7.8245021130551962e+00 0.0000000000000000e+00  9.1301296332098701e+01 7.8224846254852434e+00 0.0000000000000000e+00  9.1398318441110121e+01 7.8205053748393230e+00 0.0000000000000000e+00  9.1493447577709816e+01 7.8185580591714787e+00 0.0000000000000000e+00  9.1586735765195968e+01 7.8166389480374994e+00 0.0000000000000000e+00  9.1678232297332897e+01 7.8147427289592741e+00 0.0000000000000000e+00  9.1767985915539697e+01 7.8128660489056410e+00 0.0000000000000000e+00  9.1856043109855932e+01 7.8110047924989274e+00 0.0000000000000000e+00  9.1942449315932279e+01 7.8091557178168483e+00 0.0000000000000000e+00  9.2027248469061647e+01 7.8073157017517882e+00 0.0000000000000000e+00  9.2110483134994908e+01 7.8054819130043631e+00 0.0000000000000000e+00  9.2192194584668002e+01 7.8036518855021626e+00 0.0000000000000000e+00  9.2272422630318232e+01 7.8018229990231305e+00 0.0000000000000000e+00  9.2351206399143067e+01 7.7999937114323608e+00 0.0000000000000000e+00  9.2428582884378002e+01 7.7981614995835882e+00 0.0000000000000000e+00  9.2504588999644582e+01 7.7963253823172272e+00 0.0000000000000000e+00  9.2579259383407532e+01 7.7944832697172295e+00 0.0000000000000000e+00  9.2652628706384803e+01 7.7926342289669144e+00 0.0000000000000000e+00  9.2724729896894544e+01 7.7907771059250575e+00 0.0000000000000000e+00  9.2795594886852044e+01 7.7889107290384603e+00 0.0000000000000000e+00  9.2865254816584823e+01 7.7870344364232453e+00 0.0000000000000000e+00  9.2933739703089998e+01 7.7851474060055299e+00 0.0000000000000000e+00  9.3001078861084508e+01 7.7832490866786586e+00 0.0000000000000000e+00  9.3067300429177394e+01 7.7813389935589061e+00 0.0000000000000000e+00  9.3132431886279008e+01 7.7794167618994248e+00 0.0000000000000000e+00  9.3196499689544567e+01 7.7774820923215522e+00 0.0000000000000000e+00  9.3259529636476145e+01 7.7755348038124348e+00 0.0000000000000000e+00  9.3321546566833320e+01 7.7735747631314025e+00 0.0000000000000000e+00  9.3382574709342961e+01 7.7716019438330672e+00 0.0000000000000000e+00  9.3442637387075834e+01 7.7696163435139471e+00 0.0000000000000000e+00  9.3501757351698444e+01 7.7676180514578510e+00 0.0000000000000000e+00  9.3559956505603452e+01 7.7656071772673236e+00 0.0000000000000000e+00  9.3617256215851299e+01 7.7635839019607156e+00 0.0000000000000000e+00  9.3673677037095075e+01 7.7615484206311045e+00 0.0000000000000000e+00  9.3729239037345891e+01 7.7595009209385406e+00 0.0000000000000000e+00  9.3783961580384059e+01 7.7574417865335645e+00 0.0000000000000000e+00  9.3837863215719707e+01 7.7553710378596126e+00 0.0000000000000000e+00  9.3890962491333255e+01 7.7532892202379804e+00 0.0000000000000000e+00  9.3943276719863931e+01 7.7511964278473053e+00 0.0000000000000000e+00  9.3994823119944670e+01 7.7490930479026003e+00 0.0000000000000000e+00  9.4045618042428586e+01 7.7469792398469055e+00 0.0000000000000000e+00  9.4095677550152644e+01 7.7448553121611639e+00 0.0000000000000000e+00  9.4145017067591041e+01 7.7427214697327029e+00 0.0000000000000000e+00  9.4193651470682497e+01 7.7405778373386527e+00 0.0000000000000000e+00  9.4241595370317086e+01 7.7384246551770026e+00 0.0000000000000000e+00  9.4288862658495134e+01 7.7362619797358532e+00 0.0000000000000000e+00  9.4335466833319430e+01 7.7340898498048043e+00 0.0000000000000000e+00  9.4381420874718756e+01 7.7319081949736299e+00 0.0000000000000000e+00  9.4426737398085919e+01 7.7297169503370524e+00 0.0000000000000000e+00  9.4471428475770082e+01 7.7275159062218828e+00 0.0000000000000000e+00  9.4515505684583403e+01 7.7253047026757820e+00 0.0000000000000000e+00  9.4558980391338849e+01 7.7230830308954630e+00 0.0000000000000000e+00  9.4601863259012561e+01 7.7208503113118487e+00 0.0000000000000000e+00  9.4644164592004245e+01 7.7186058739599579e+00 0.0000000000000000e+00  9.4685894190251915e+01 7.7163488481590372e+00 0.0000000000000000e+00  9.4727061501602989e+01 7.7140782782510469e+00 0.0000000000000000e+00  9.4767675425257664e+01 7.7117929637197369e+00 0.0000000000000000e+00  9.4807744339856413e+01 7.7094914308397406e+00 0.0000000000000000e+00  9.4847276422193090e+01 7.7071721837966329e+00 0.0000000000000000e+00  9.4886279090042052e+01 7.7048333349696039e+00 0.0000000000000000e+00  9.4924759136701837e+01 7.7024725925417812e+00 0.0000000000000000e+00  9.4962723300792334e+01 7.7000876704740806e+00 0.0000000000000000e+00  9.5000177435316033e+01 7.6976758011133208e+00 0.0000000000000000e+00  9.5037126812673250e+01 7.6952338003035150e+00 0.0000000000000000e+00  9.5073576303512965e+01 7.6927582319857608e+00 0.0000000000000000e+00  9.5109530047917289e+01 7.6902452942881840e+00 0.0000000000000000e+00  9.5144991447850174e+01 7.6876904261099481e+00 0.0000000000000000e+00  9.5179963707320951e+01 7.6850891457343353e+00 0.0000000000000000e+00  9.5214448761280664e+01 7.6824360726258210e+00 0.0000000000000000e+00  9.5248447990256565e+01 7.6797254342255323e+00 0.0000000000000000e+00  9.5281961946020346e+01 7.6769508531628317e+00 0.0000000000000000e+00  9.5314990438099585e+01 7.6741054451869832e+00 0.0000000000000000e+00  9.5347532296260169e+01 7.6711817166021250e+00 0.0000000000000000e+00  9.5379585360088114e+01 7.6681715060872753e+00 0.0000000000000000e+00  9.5411146605987653e+01 7.6650660194212259e+00 0.0000000000000000e+00  9.5442211911604886e+01 7.6618558618938248e+00 0.0000000000000000e+00  9.5472775912749000e+01 7.6585310710765659e+00 0.0000000000000000e+00  9.5502831853579735e+01 7.6550806682528449e+00 0.0000000000000000e+00  9.5532372294454305e+01 7.6514934789823927e+00 0.0000000000000000e+00  9.5561388049706323e+01 7.6477577533990813e+00 0.0000000000000000e+00  9.5589868292609140e+01 7.6438607719228759e+00 0.0000000000000000e+00  9.5617801241154694e+01 7.6397898510140241e+00 0.0000000000000000e+00  9.5645173257944464e+01 7.6355317619133576e+00 0.0000000000000000e+00  9.5671969185095008e+01 7.6310730684245813e+00 0.0000000000000000e+00  9.5698172112299986e+01 7.6264005134296440e+00 0.0000000000000000e+00  9.5723763602653079e+01 7.6215004820402266e+00 0.0000000000000000e+00  9.5748723272932807e+01 7.6163614630774621e+00 0.0000000000000000e+00  9.5773028527226657e+01 7.6109697564777017e+00 0.0000000000000000e+00  9.5796656187560743e+01 7.6053166015335334e+00 0.0000000000000000e+00  9.5819579867363018e+01 7.5993922321349237e+00 0.0000000000000000e+00  9.5841772115612983e+01 7.5931904408874935e+00 0.0000000000000000e+00  9.5863203685986619e+01 7.5867083028131672e+00 0.0000000000000000e+00  9.5883843008623828e+01 7.5799457528122245e+00 0.0000000000000000e+00  9.5903657443029999e+01 7.5729080754440554e+00 0.0000000000000000e+00  9.5922612541082373e+01 7.5656067744071320e+00 0.0000000000000000e+00  9.5940672425340864e+01 7.5580612158364859e+00 0.0000000000000000e+00  9.5957799863067905e+01 7.5502983704994335e+00 0.0000000000000000e+00  9.5973956607778035e+01 7.5423567521705426e+00 0.0000000000000000e+00  9.5989103018460369e+01 7.5342881113056910e+00 0.0000000000000000e+00  9.6003199389607317e+01 7.5261585528836594e+00 0.0000000000000000e+00  9.6016204648165754e+01 7.5180518604994644e+00 0.0000000000000000e+00  9.6028076350720610e+01 7.5100744807033006e+00 0.0000000000000000e+00  9.6038772532995893e+01 7.5023575692223234e+00 0.0000000000000000e+00  9.6048245789091325e+01 7.4950608592185715e+00 0.0000000000000000e+00  9.6056442718963268e+01 7.4883767221556576e+00 0.0000000000000000e+00  9.6063302760403062e+01 7.4825100229792731e+00 0.0000000000000000e+00  9.6068587702940633e+01 7.4777732773471746e+00 0.0000000000000000e+00  9.6078272459235365e+01 7.4718783824947526e+00 0.0000000000000000e+00  9.6095863777207043e+01 7.4666622870654065e+00 0.0000000000000000e+00  9.6123100696126599e+01 7.4601696472127479e+00 0.0000000000000000e+00  9.6159854639488685e+01 7.4528065610785657e+00 0.0000000000000000e+00  9.6206240141995735e+01 7.4447300784453327e+00 0.0000000000000000e+00  9.6262013688821185e+01 7.4368978063966891e+00 0.0000000000000000e+00  9.6327535387883174e+01 7.4283459168534876e+00 0.0000000000000000e+00  9.6402834592319195e+01 7.4199267866092242e+00 0.0000000000000000e+00  9.6487845254709526e+01 7.4117070046984885e+00 0.0000000000000000e+00  9.6582466410567122e+01 7.4038287295534779e+00 0.0000000000000000e+00  9.6686696921531251e+01 7.3963494214667982e+00 0.0000000000000000e+00  9.6800383379812999e+01 7.3894423230409600e+00 0.0000000000000000e+00  9.6923309677975723e+01 7.3832050280417754e+00 0.0000000000000000e+00  9.7055274943053931e+01 7.3777087631633371e+00 0.0000000000000000e+00  9.7195984443150422e+01 7.3730480406265331e+00 0.0000000000000000e+00  9.7345051624479908e+01 7.3693894929388355e+00 0.0000000000000000e+00  9.7502198400357244e+01 7.3666729590203222e+00 0.0000000000000000e+00  9.7666884646533020e+01 7.3650348636879341e+00 0.0000000000000000e+00  9.7838767982163631e+01 7.3645464842548689e+00 0.0000000000000000e+00  9.8017287980555977e+01 7.3652366237759210e+00 0.0000000000000000e+00  9.8201849183967511e+01 7.3671498159434687e+00 0.0000000000000000e+00  9.8391802488597179e+01 7.3703397362298313e+00 0.0000000000000000e+00  9.8586994275465770e+01 7.3750104994453762e+00 0.0000000000000000e+00  9.8786387111665377e+01 7.3804712762646387e+00 0.0000000000000000e+00  9.8988990158719673e+01 7.3874711221282316e+00 0.0000000000000000e+00  9.9194520944027872e+01 7.3958305309493824e+00 0.0000000000000000e+00  9.9401668716266343e+01 7.4050471871633210e+00 0.0000000000000000e+00  9.9610737073452555e+01 7.4162798061105173e+00 0.0000000000000000e+00  9.9820127237038989e+01 7.4285438050158694e+00 0.0000000000000000e+00  1.00