<?xml version="1.0"?>
<VTKFile type="UnstructuredGrid"  version="0.1"  >
<UnstructuredGrid>
<Piece  NumberOfPoints="6649" NumberOfCells="12859">
<Points>
<DataArray  type="Float64"  NumberOfComponents="3"  format="ascii">0 0 0  0.75 0 0  0.85 0 0  1.8 0 0  1.8 0.1 0  0 0.1 0  0.0197667577360765 0 0  0.03953351547215212 0 0  0.05930027320823922 0 0  0.07906703094433311 0 0  0.09883378868041724 0 0  0.1186005464164749 0 0  0.1383673041525551 0 0  0.158134061888649 0 0  0.1779008196247429 0 0  0.1976675773608367 0 0  0.2174343350969306 0 0  0.2372010928330244 0 0  0.2569678505691183 0 0  0.2767346083052122 0 0  0.296501366041306 0 0  0.3162681237773999 0 0  0.3360348815134938 0 0  0.3558016392495876 0 0  0.3755683969856956 0 0  0.3953351547219259 0 0  0.415101912458166 0 0  0.4348686701944061 0 0  0.4546354279306462 0 0  0.4744021856668862 0 0  0.4941689434031263 0 0  0.5132321578495721 0 0  0.5297803041756365 0 0  0.5440483641191814 0 0  0.5563504982721431 0 0  0.5669575821633017 0 0  0.5761031680953438 0 0  0.5839886295292807 0 0  0.5907875923391745 0 0  0.5966497596361832 0 0  0.6017493169781984 0 0  0.6066910064122585 0 0  0.6116326958463185 0 0  0.6165743852803786 0 0  0.6215160747144387 0 0  0.6264577641484987 0 0  0.6313994535825588 0 0  0.6363411430166188 0 0  0.6412828324506789 0 0  0.646224521884739 0 0  0.6511662113187989 0 0  0.6561079007528591 0 0  0.6610495901869191 0 0  0.6659912796209791 0 0  0.6709329690550392 0 0  0.6758746584890992 0 0  0.6808163479231593 0 0  0.6857580373572194 0 0  0.6906997267912793 0 0  0.6956414162253395 0 0  0.7005831056593994 0 0  0.7055247950934596 0 0  0.7104664845275196 0 0  0.7154081739615796 0 0  0.7203498633956397 0 0  0.7252915528296997 0 0  0.7302332422637597 0 0  0.7351749316978198 0 0  0.7401166211318799 0 0  0.74505831056594 0 0  0.8549639029829768 0 0  0.8599278059659535 0 0  0.8648917089489304 0 0  0.8698556119319072 0 0  0.874819514914884 0 0  0.8797834178978607 0 0  0.8847473208808376 0 0  0.8897112238638144 0 0  0.8946751268467912 0 0  0.899639029829768 0 0  0.9046029328127448 0 0  0.9095668357957216 0 0  0.9145307387786984 0 0  0.9194946417616752 0 0  0.9244585447446521 0 0  0.9294224477276288 0 0  0.9343863507106056 0 0  0.9393502536935824 0 0  0.9443141566765593 0 0  0.949278059659536 0 0  0.9542419626425128 0 0  0.9592058656254896 0 0  0.9641697686084665 0 0  0.9691336715914421 0 0  0.9740975745744045 0 0  0.9790614775573583 0 0  0.9840253805403074 0 0  0.9889892835232696 0 0  0.9939531865062405 0 0  0.9989170894892173 0 0  1.003880992472194 0 0  1.008844895455171 0 0  1.013808798438148 0 0  1.018772701421125 0 0  1.023736604404101 0 0  1.028700507387078 0 0  1.033664410370055 0 0  1.038628313353032 0 0  1.043592216336009 0 0  1.048556119318985 0 0  1.053520022301962 0 0  1.058483925284939 0 0  1.063447828267916 0 0  1.068411731250893 0 0  1.073375634233869 0 0  1.078339537216846 0 0  1.083303440199823 0 0  1.0882673431828 0 0  1.093231246165776 0 0  1.098195149148753 0 0  1.10315905213173 0 0  1.108122955114707 0 0  1.113086858097684 0 0  1.11805076108066 0 0  1.123014664063637 0 0  1.127978567046614 0 0  1.132942470029591 0 0  1.137906373012568 0 0  1.142870275995544 0 0  1.147834178978521 0 0  1.152798081961498 0 0  1.157761984944475 0 0  1.162725887927452 0 0  1.167689790910428 0 0  1.172653693893405 0 0  1.177617596876382 0 0  1.182581499859359 0 0  1.187545402842336 0 0  1.192509305825312 0 0  1.197473208808289 0 0  1.202528416558545 0 0  1.208286980028268 0 0  1.214970234825317 0 0  1.222726666214885 0 0  1.231728598035476 0 0  1.242176031676204 0 0  1.254301080864354 0 0  1.268373130368153 0 0  1.284704824362368 0 0  1.303609701700496 0 0  1.323465313632403 0 0  1.343320925564331 0 0  1.363176537496441 0 0  1.383032149428385 0 0  1.402887761360444 0 0  1.422743373292381 0 0  1.442598985224447 0 0  1.462454597156384 0 0  1.482310209088442 0 0  1.502165821020387 0 0  1.52202143295243 0 0  1.5418770448844 0 0  1.561732656816418 0 0  1.58158826874835 0 0  1.601443880680319 0 0  1.621299492612267 0 0  1.641155104544221 0 0  1.661010716476183 0 0  1.680866328408122 0 0  1.7007219403401 0 0  1.720577552272023 0 0  1.740433164204017 0 0  1.760288776135996 0 0  1.780144388068006 0 0  1.8 0.0001 0  1.8 0.00024 0  1.8 0.000436 0  1.8 0.0007103999999999999 0  1.8 0.00109456 0  1.8 0.001632384 0  1.8 0.0023853376 0  1.8 0.003439472639999999 0  1.8 0.004915261695999998 0  1.8 0.02294915701755847 0  1.8 0.04098305233910775 0  1.8 0.05901694766070642 0  1.8 0.07705084298235496 0  1.8 0.09508473830400001 0  1.8 0.09656052736000001 0  1.8 0.09761466240000001 0  1.8 0.098367616 0  1.8 0.09890544000000001 0  1.8 0.09928960000000001 0  1.8 0.099564 0  1.8 0.09976 0  1.8 0.0999 0  1.780054611080893 0.1 0  1.760109222161742 0.1 0  1.740163833242603 0.1 0  1.720218444323514 0.1 0  1.700273055404377 0.1 0  1.680327666485227 0.1 0  1.660382277566116 0.1 0  1.640436888647012 0.1 0  1.620491499727862 0.1 0  1.600546110808719 0.1 0  1.58060072188963 0.1 0  1.560655332970497 0.1 0  1.540709944051346 0.1 0  1.520764555132233 0.1 0  1.500819166213187 0.1 0  1.480873777294068 0.1 0  1.460928388374922 0.1 0  1.440982999455856 0.1 0  1.421037610536787 0.1 0  1.401092221617639 0.1 0  1.381146832698522 0.1 0  1.361201443779477 0.1 0  1.341256054860361 0.1 0  1.32131066594121 0.1 0  1.301365277022092 0.1 0  1.282656370697047 0.1 0  1.266540829382826 0.1 0  1.252664371060761 0.1 0  1.240715900130383 0.1 0  1.230427543971492 0.1 0  1.22156864397028 0.1 0  1.213940595522496 0.1 0  1.207372383276256 0.1 0  1.201716755059164 0.1 0  1.19668766017256 0.1 0  1.191701312942788 0.1 0  1.186714965713021 0.1 0  1.181728618483264 0.1 0  1.176742271253507 0.1 0  1.17175592402375 0.1 0  1.166769576793993 0.1 0  1.161783229564236 0.1 0  1.156796882334479 0.1 0  1.151810535104719 0.1 0  1.146824187874946 0.1 0  1.141837840645174 0.1 0  1.136851493415395 0.1 0  1.131865146185607 0.1 0  1.12687879895582 0.1 0  1.121892451726041 0.1 0  1.116906104496269 0.1 0  1.111919757266497 0.1 0  1.106933410036737 0.1 0  1.10194706280698 0.1 0  1.096960715577223 0.1 0  1.091974368347466 0.1 0  1.08698802111771 0.1 0  1.08200167388795 0.1 0  1.077015326658178 0.1 0  1.072028979428405 0.1 0  1.067042632198628 0.1 0  1.06205628496884 0.1 0  1.057069937739053 0.1 0  1.052083590509273 0.1 0  1.047097243279501 0.1 0  1.042110896049729 0.1 0  1.037124548819967 0.1 0  1.03213820159021 0.1 0  1.027151854360453 0.1 0  1.022165507130696 0.1 0  1.01717915990094 0.1 0  1.012192812671182 0.1 0  1.007206465441417 0.1 0  1.002220118211653 0.1 0  0.9972337709818865 0.1 0  0.9922474237521142 0.1 0  0.987261076522342 0.1 0  0.9822747292925696 0.1 0  0.9772883820627973 0.1 0  0.9723020348330251 0.1 0  0.9673156876032528 0.1 0  0.9623293403734806 0.1 0  0.9573429931437083 0.1 0  0.952356645913936 0.1 0  0.9473702986841638 0.1 0  0.9423839514543916 0.1 0  0.9373976042246193 0.1 0  0.9324112569948469 0.1 0  0.9274249097650747 0.1 0  0.9224385625353024 0.1 0  0.9174522153055302 0.1 0  0.9124658680757579 0.1 0  0.9074795208459857 0.1 0  0.9024931736162134 0.1 0  0.8975068263864333 0.1 0  0.8925204791566458 0.1 0  0.8875341319268581 0.1 0  0.8825477846970601 0.1 0  0.8775614374672571 0.1 0  0.8725750902374539 0.1 0  0.8675887430076509 0.1 0  0.8626023957778479 0.1 0  0.857616048548045 0.1 0  0.8526297013182419 0.1 0  0.8476433540884389 0.1 0  0.8426570068586375 0.1 0  0.8376706596288421 0.1 0  0.8326843123990469 0.1 0  0.8276979651692515 0.1 0  0.8227116179394561 0.1 0  0.8177252707096607 0.1 0  0.8127389234798611 0.1 0  0.8077525762500579 0.1 0  0.8027662290202549 0.1 0  0.7977798817904576 0.1 0  0.7927935345606625 0.1 0  0.787807187330867 0.1 0  0.7828208401010643 0.1 0  0.7778344928712615 0.1 0  0.7728481456414584 0.1 0  0.7678617984116554 0.1 0  0.7628754511818525 0.1 0  0.7578891039520492 0.1 0  0.7529027567222462 0.1 0  0.7479164094924433 0.1 0  0.7429300622626402 0.1 0  0.7379437150328372 0.1 0  0.7329573678030343 0.1 0  0.7279710205732413 0.1 0  0.7229846733434535 0.1 0  0.717998326113666 0.1 0  0.7130119788838654 0.1 0  0.7080256316540623 0.1 0  0.7030392844242594 0.1 0  0.6980529371944564 0.1 0  0.6930665899646533 0.1 0  0.6880802427348505 0.1 0  0.6830938955050474 0.1 0  0.6781075482752443 0.1 0  0.6731212010454415 0.1 0  0.6681348538156384 0.1 0  0.6631485065858354 0.1 0  0.6581621593560409 0.1 0  0.6531758121262534 0.1 0  0.6481894648964657 0.1 0  0.6432031176666668 0.1 0  0.6382167704368638 0.1 0  0.6332304232070607 0.1 0  0.6282440759772578 0.1 0  0.6232577287474548 0.1 0  0.618271381517653 0.1 0  0.6132850342878655 0.1 0  0.6082986870580673 0.1 0  0.603312339828264 0.1 0  0.5982832449416711 0.1 0  0.5926276167246765 0.1 0  0.586059404478541 0.1 0  0.5784313560308749 0.1 0  0.5695724560297908 0.1 0  0.5592840998710413 0.1 0  0.5473356289408138 0.1 0  0.5334591706189113 0.1 0  0.5173436293048621 0.1 0  0.4986347229799815 0.1 0  0.478689334060789 0.1 0  0.4587439451415785 0.1 0  0.4387985562224006 0.1 0  0.418853167303197 0.1 0  0.3989077783839854 0.1 0  0.3789623894647756 0.1 0  0.3590170005456041 0.1 0  0.3390716116263919 0.1 0  0.3191262227071796 0.1 0  0.2991808337879986 0.1 0  0.2792354448687984 0.1 0  0.2592900559495861 0.1 0  0.2393446670303738 0.1 0  0.2193992781112049 0.1 0  0.1994538891919926 0.1 0  0.1795085002727801 0.1 0  0.159563111353596 0.1 0  0.1396177224343995 0.1 0  0.119672333515187 0.1 0  0.09972694459597498 0.1 0  0.07978155567680578 0.1 0  0.05983616675759373 0.1 0  0.03989077783838124 0.1 0  0.01994538891919428 0.1 0  0 0.0999 0  0 0.09976 0  0 0.099564 0  0 0.09928960000000001 0  0 0.09890544000000001 0  0 0.098367616 0  0 0.09761466240000001 0  0 0.09656052736000001 0  0 0.09508473830400001 0  0 0.07705084298244591 0  0 0.05901694766089675 0  0 0.04098305233930213 0  0 0.02294915701764492 0  0 0.004915261695999998 0  0 0.003439472639999999 0  0 0.0023853376 0  0 0.001632384 0  0 0.00109456 0  0 0.0007103999999999999 0  0 0.000436 0  0 0.00024 0  0 0.0001 0  0.8497592363325269 0.004900857027472395 0
[...]
<PointData  Scalars="Distance"> 
<DataArray  type="Float64"  Name="Distance"  format="ascii">0.0000000000000000e+00  0.0000000000000000e+00  0.0000000000000000e+00  0.0000000000000000e+00  0.0000000000000000e+00  0.0000000000000000e+00  0.0000000000000000e+00  0.0000000000000000e+00  0.0000000000000000e+00  0.0000000000000000e+00  0.0000000000000000e+00  0.0000000000000000e+00  0.0000000000000000e+00  0.0000000000000000e+00  0.0000000000000000e+00  0.0000000000000000e+00  0.0000000000000000e+00  0.0000000000000000e+00  0.0000000000000000e+00  0.0000000000000000e+00  0.0000000000000000e+00  0.0000000000000000e+00  0.0000000000000000e+00  0.0000000000000000e+00  0.0000000000000000e+00  0.0000000000000000e+00  0.0000000000000000e+00  0.0000000000000000e+00  0.0000000000000000e+00  0.0000000000000000e+00  0.0000000000000000e+00  0.0000000000000000e+00  0.0000000000000000e+00  0.0000000000000000e+00  0.0000000000000000e+00  0.0000000000000000e+00  0.0000000000000000e+00  0.0000000000000000e+00  0.0000000000000000e+00  0.0000000000000000e+00  0.0000000000000000e+00  0.0000000000000000e+00  0.0000000000000000e+00  0.0000000000000000e+00  0.0000000000000000e+00  0.0000000000000000e+00  0.0000000000000000e+00  0.0000000000000000e+00  0.0000000000000000e+00  0.0000000000000000e+00  0.0000000000000000e+00  0.0000000000000000e+00  0.0000000000000000e+00  0.0000000000000000e+00  0.0000000000000000e+00  0.0000000000000000e+00  0.0000000000000000e+00  0.0000000000000000e+00  0.0000000000000000e+00  0.0000000000000000e+00  0.0000000000000000e+00  0.0000000000000000e+00  0.0000000000000000e+00  0.0000000000000000e+00  0.0000000000000000e+00  0.0000000000000000e+00  0.0000000000000000e+00  0.0000000000000000e+00  0.0000000000000000e+00  0.0000000000000000e+00  0.0000000000000000e+00  0.0000000000000000e+00  0.0000000000000000e+00  0.0000000000000000e+00  0.0000000000000000e+00  0.0000000000000000e+00  0.0000000000000000e+00  0.0000000000000000e+00  0.0000000000000000e+00  0.0000000000000000e+00  0.0000000000000000e+00  0.0000000000000000e+00  0.0000000000000000e+00  0.0000000000000000e+00  0.0000000000000000e+00  0.0000000000000000e+00  0.0000000000000000e+00  0.0000000000000000e+00  0.0000000000000000e+00  0.0000000000000000e+00  0.0000000000000000e+00  0.0000000000000000e+00  0.0000000000000000e+00  0.0000000000000000e+00  0.0000000000000000e+00  0.0000000000000000e+00  0.0000000000000000e+00  0.0000000000000000e+00  0.0000000000000000e+00  0.0000000000000000e+00  0.0000000000000000e+00  0.0000000000000000e+00  0.0000000000000000e+00  0.0000000000000000e+00  0.0000000000000000e+00  0.0000000000000000e+00  0.0000000000000000e+00  0.0000000000000000e+00  0.0000000000000000e+00  0.0000000000000000e+00  0.0000000000000000e+00  0.0000000000000000e+00  0.0000000000000000e+00  0.0000000000000000e+00  0.0000000000000000e+00  0.0000000000000000e+00  0.0000000000000000e+00  0.0000000000000000e+00  0.0000000000000000e+00  0.0000000000000000e+00  0.0000000000000000e+00  0.0000000000000000e+00  0.0000000000000000e+00  0.0000000000000000e+00  0.0000000000000000e+00  0.0000000000000000e+00  0.0000000000000000e+00  0.0000000000000000e+00  0.0000000000000000e+00  0.0000000000000000e+00  0.0000000000000000e+00  0.0000000000000000e+00  0.0000000000000000e+00  0.0000000000000000e+00  0.0000000000000000e+00  0.0000000000000000e+00  0.0000000000000000e+00  0.0000000000000000e+00  0.0000000000000000e+00  0.0000000000000000e+00  0.0000000000000000e+00  0.0000000000000000e+00  0.0000000000000000e+00  0.0000000000000000e+00  0.0000000000000000e+00  0.0000000000000000e+00  0.0000000000000000e+00  0.0000000000000000e+00  0.0000000000000000e+00  0.0000000000000000e+00  0.0000000000000000e+00  0.0000000000000000e+00  0.0000000000000000e+00  0.0000000000000000e+00  0.0000000000000000e+00  0.0000000000000000e+00  0.0000000000000000e+00  0.0000000000000000e+00  0.0000000000000000e+00  0.0000000000000000e+00  0.0000000000000000e+00  0.0000000000000000e+00  0.0000000000000000e+00  0.0000000000000000e+00  0.0000000000000000e+00  0.0000000000000000e+00  0.0000000000000000e+00  0.0000000000000000e+00  0.0000000000000000e+00  0.0000000000000000e+00  0.0000000000000000e+00  0.0000000000000000e+00  0.0000000000000000e+00  0.0000000000000000e+00  9.8652411928412675e-06  2.3658831489359322e-05  4.2935033822244506e-05  6.9853355102900139e-05  1.0740471984693745e-04  1.5971261044378515e-04  2.3242388133137837e-04  3.3319441561174834e-04  4.7224509573418061e-04  2.0460962222672574e-03  3.2576843357974283e-03  3.2602717827835653e-03  2.0479332169881393e-03  4.7323745503342462e-04  3.3410454340745271e-04  2.3290738012413451e-04  1.5996744743775222e-04  1.0753471543151812e-04  6.9913790946035670e-05  4.2980889065083461e-05  2.3681460931623821e-05  9.8738926232050384e-06  0.0000000000000000e+00  0.0000000000000000e+00  0.0000000000000000e+00  0.0000000000000000e+00  0.0000000000000000e+00  0.0000000000000000e+00  0.0000000000000000e+00  0.0000000000000000e+00  0.0000000000000000e+00  0.0000000000000000e+00  0.0000000000000000e+00  0.0000000000000000e+00  0.0000000000000000e+00  0.0000000000000000e+00  0.0000000000000000e+00  0.0000000000000000e+00  0.0000000000000000e+00  0.0000000000000000e+00  0.0000000000000000e+00  0.0000000000000000e+00  0.0000000000000000e+00  0.0000000000000000e+00  0.0000000000000000e+00  0.0000000000000000e+00  0.0000000000000000e+00  0.0000000000000000e+00  0.0000000000000000e+00  0.0000000000000000e+00  0.0000000000000000e+00  0.0000000000000000e+00  0.0000000000000000e+00  0.0000000000000000e+00  0.0000000000000000e+00  0.0000000000000000e+00  0.0000000000000000e+00  0.0000000000000000e+00  0.0000000000000000e+00  0.0000000000000000e+00  0.0000000000000000e+00  0.0000000000000000e+00  0.0000000000000000e+00  0.0000000000000000e+00  0.0000000000000000e+00  0.0000000000000000e+00  0.0000000000000000e+00  0.0000000000000000e+00  0.0000000000000000e+00  0.0000000000000000e+00  0.0000000000000000e+00  0.0000000000000000e+00  0.0000000000000000e+00  0.0000000000000000e+00  0.0000000000000000e+00  0.0000000000000000e+00  0.0000000000000000e+00  0.0000000000000000e+00  0.0000000000000000e+00  0.0000000000000000e+00  0.0000000000000000e+00  0.0000000000000000e+00  0.0000000000000000e+00  0.0000000000000000e+00  0.0000000000000000e+00  0.0000000000000000e+00  0.0000000000000000e+00  0.0000000000000000e+00  0.0000000000000000e+00  0.0000000000000000e+00  0.0000000000000000e+00  0.0000000000000000e+00  0.0000000000000000e+00  0.0000000000000000e+00  0.0000000000000000e+00  0.0000000000000000e+00  0.0000000000000000e+00  0.0000000000000000e+00  0.0000000000000000e+00  0.0000000000000000e+00  0.0000000000000000e+00  0.0000000000000000e+00  0.0000000000000000e+00  0.0000000000000000e+00  0.0000000000000000e+00  0.0000000000000000e+00  0.0000000000000000e+00  0.0000000000000000e+00  0.0000000000000000e+00  0.0000000000000000e+00  0.0000000000000000e+00  0.0000000000000000e+00  0.0000000000000000e+00  0.0000000000000000e+00  0.0000000000000000e+00  0.0000000000000000e+00  0.0000000000000000e+00  0.0000000000000000e+00  0.0000000000000000e+00  0.0000000000000000e+00  0.0000000000000000e+00  0.0000000000000000e+00  0.0000000000000000e+00  0.0000000000000000e+00  0.0000000000000000e+00  0.0000000000000000e+00  0.0000000000000000e+00  0.0000000000000000e+00  0.0000000000000000e+00  0.0000000000000000e+00  0.0000000000000000e+00  0.0000000000000000e+00  0.0000000000000000e+00  0.0000000000000000e+00  0.0000000000000000e+00  0.0000000000000000e+00  0.0000000000000000e+00  0.0000000000000000e+00  0.0000000000000000e+00  0.0000000000000000e+00  0.0000000000000000e+00  0.0000000000000000e+00  0.0000000000000000e+00  0.0000000000000000e+00  0.0000000000000000e+00  0.0000000000000000e+00  0.0000000000000000e+00  0.0000000000000000e+00  0.0000000000000000e+00  0.0000000000000000e+00  0.0000000000000000e+00  0.0000000000000000e+00  0.0000000000000000e+00  0.0000000000000000e+00  0.0000000000000000e+00  0.0000000000000000e+00  0.0000000000000000e+00  0.0000000000000000e+00  0.0000000000000000e+00  0.0000000000000000e+00  0.0000000000000000e+00  0.0000000000000000e+00  0.0000000000000000e+00  0.0000000000000000e+00  0.0000000000000000e+00  0.0000000000000000e+00  0.0000000000000000e+00  0.0000000000000000e+00  0.0000000000000000e+00  0.0000000000000000e+00  0.0000000000000000e+00  0.0000000000000000e+00  0.0000000000000000e+00  0.0000000000000000e+00  0.0000000000000000e+00  0.0000000000000000e+00  0.0000000000000000e+00  0.0000000000000000e+00  0.0000000000000000e+00  0.0000000000000000e+00  0.0000000000000000e+00  0.0000000000000000e+00  0.0000000000000000e+00  0.0000000000000000e+00  0.0000000000000000e+00  0.0000000000000000e+00  0.0000000000000000e+00  0.0000000000000000e+00  0.0000000000000000e+00  0.0000000000000000e+00  0.0000000000000000e+00  0.0000000000000000e+00  0.0000000000000000e+00  0.0000000000000000e+00  0.0000000000000000e+00  0.0000000000000000e+00  0.0000000000000000e+00  0.0000000000000000e+00  0.0000000000000000e+00  0.0000000000000000e+00  0.0000000000000000e+00  0.0000000000000000e+00  0.0000000000000000e+00  0.0000000000000000e+00  0.0000000000000000e+00  0.0000000000000000e+00  0.0000000000000000e+00  0.0000000000000000e+00  0.0000000000000000e+00  0.0000000000000000e+00  9.8674275881638698e-06  2.3664077547312819e-05  4.2944557881230416e-05  6.9868847811552573e-05  1.0747769466619341e-04  1.5979707739272649e-04  2.3252401427924663e-04  3.3368549167941183e-04  4.7276584768763535e-04  2.0468541240293652e-03  3.2590159455246747e-03  3.2580658518506223e-03  2.0465100161805028e-03  4.7329372557369798e-04  3.3364234210420118e-04  2.3259402634723259e-04  1.5976072526591167e-04  1.0740431739453271e-04  6.9837949408402267e-05  4.2918938948144358e-05  2.3647360100631509e-05  9.8596839657183466e-06  0.0000000000000000e+00  0.0000000000000000e+00  0.0000000000000000e+00  0.0000000000000000e+00  0.0000000000000000e+00  0.0000000000000000e+00  0.0000000000000000e+00  0.0000000000000000e+00  0.0000000000000000e+00  0.0000000000000000e+00  0.0000000000000000e+00  0.0000000000000000e+00  0.0000000000000000e+00  0.0000000000000000e+00  0.0000000000000000e+00  0.0000000000000000e+00  0.0000000000000000e+00  0.0000000000000000e+00  0.0000000000000000e+00  0.0000000000000000e+00  0.0000000000000000e+00  0.0000000000000000e+00  0.0000000000000000e+00  0.0000000000000000e+00  0.0000000000000000e+00  0.0000000000000000e+00  0.0000000000000000e+00  0.0000000000000000e+00  0.0000000000000000e+00  0.0000000000000000e+00  0.0000000000000000e+00  7.8153467253372355e-07  1.9511803996952182e-06  3.7385276331347583e-06  6.5401040167945013e-06  1.1064658130166549e-05  1.8626264325249942e-05  3.1763723936761856e-05  5.5672191336619825e-05  1.0354843249826828e-04  7.7959728117527050e-07  1.9465556024833575e-06  3.7302657535098760e-06  6.5269070550488806e-06  1.1044988101005515e-05  1.8598798091074009e-05  3.1729257172985470e-05  5.5642168203973164e-05  1.0374835741577826e-04  9.4707653181258511e-06  2.2713033491887809e-05  4.1219265521666611e-05  6.7063396353941006e-05  1.0311850534483295e-04  1.5339538412687502e-04  2.2332520061725276e-04  3.2015359384376680e-04  4.5386595234195954e-04  9.5155835181841633e-06  2.2820603167701334e-05  4.1414715491901871e-05  6.7381979504486239e-05  1.0360979873766905e-04  1.5408125394691854e-04  2.2425663505888215e-04  3.2155342853722483e-04  4.5591273886108402e-04  9.4307890367642533e-06  2.2617102413496903e-05  4.1045054205809083e-05  6.6779794273716126e-05  1.0268240352595808e-04  1.5265134373960683e-04  2.2209633758592685e-04  3.1849504085656967e-04  4.5158723701259644e-04  9.3778995404062218e-06  2.2490163580096527e-05  4.0814427267273339e-05  6.6403936019420427e-05  1.0210300284192383e-04  1.5183452233580655e-04  2.2097492639997201e-04  3.1682545030938371e-04  4.4916776131575208e-04  1.0031211225891568e-05  2.4057181880698941e-05  4.3665224532252189e-05  7.1039534279115912e-05  1.0925507480796792e-04  1.6246200815195344e-04  2.3644244525222735e-04  3.3920485494132180e-04  4.8123436711833278e-04  9.9947234492026027e-06  2.3972869369726091e-05  4.3509345307279901e-05  7.0795872387674486e-05  1.0887051838903705e-04  1.6187887647112209e-04  2.3567200064733562e-04  3.3802992603715332e-04  4.7946427375566980e-04  9.9871907934812043e-06  2.3952457431031249e-05  4.3470900496944687e-05  7.0732173977239299e-05  1.0877143530285682e-04  1.6177839199615907e-04  2.3540746935868384e-04  3.3766690016479028e-04  4.7896054243201647e-04  1.0000341323590511e-05  2.3981685707719080e-05  4.3522638536019898e-05  7.0815428943271641e-05  1.0887422382821477e-04  1.6189474576533414e-04  2.3570457266108846e-04  3.3808464015550044e-04  4.7954715001208292e-04  9.9986824667608332e-06  2.3980037923587716e-05  4.3521007581648341e-05  7.0813826285376358e-05  1.0889727239826730e-04  1.6196615698649275e-04  2.3587112324530146e-04  3.3825376543961116e-04  4.7972349664360259e-04  9.9829984491206503e-06  2.3944726982638720e-05  4.3458207154900563e-05  7.0712499254832473e-05  1.0874188523835038e-04  1.6178291638424547e-04  2.3558045432603425e-04  3.3781003521526909e-04  4.7905734504039010e-04  9.9867555720667411e-06  2.3951413516409836e-05  4.3469007113827729e-05  7.0729100741573347e-05  1.0876673999526965e-04  1.6177151518137478e-04  2.3549222988938912e-04  3.3774876430869849e-04  4.7904119373931575e-04  1.0010360338985613e-05  2.4011331014484050e-05  4.3575187260280757e-05  7.0900040932131425e-05  1.0902832210035740e-04  1.6220814618095325e-04  2.3620102322297054e-04  3.3870692923432255e-04  4.8034897469073634e-04  9.9953311720746285e-06  2.3969661666733977e-05  4.3500796451767521e-05  7.0779845701252064e-05  1.0886861175429807e-04  1.6191053592484739e-04  2.3568336437551629e-04  3.3801298672686553e-04  4.7940776552246600e-04  9.9915924426374758e-06  2.3965354953303653e-05  4.3495693918149669e-05  7.0773628302989167e-05  1.0883623308832746e-04  1.6187591604799323e-04  2.3564539892528824e-04  3.3796995818258235e-04  4.7935697618606277e-04  9.9997423258502138e-06  2.3980248511468183e-05  4.3520029819221762e-05  7.0798637176738843e-05  1.0887975220241763e-04  1.6194536774050139e-04  2.3565683382342772e-04  3.3803235673957044e-04  4.7949062335050918e-04  9.9934915709365413e-06  2.3967579557804264e-05  4.3498373738293239e-05  7.0789492372602680e-05  1.0885299007656890e-04  1.6194216056952815e-04  2.3571370004560332e-04  3.3804158632877446e-04  4.7943394650151738e-04  9.9986399838547513e-06  2.3979935911855321e-05  4.3520822176068563e-05  7.0826073392593614e-05  1.0890937282115321e-04  1.6197808593354512e-04  2.3578839199878132e-04  3.3817048178685916e-04  4.7963885236623760e-04  9.9986377901650769e-06  2.3979931186524084e-05  4.3520816247699656e-05  7.0813524666313299e-05  1.0889684648662801e-04  1.6196564378245792e-04  2.3577624442416845e-04  3.3815929526381794e-04  4.7963065051137566e-04  1.0040372517283735e-05  2.4077765234498116e-05  4.3697207738557786e-05  7.1087412180093068e-05  1.0932499124249873e-04  1.6256213673804254e-04  2.3658295613393499e-04  3.3939632269686104e-04  4.8148198479303073e-04  9.9924909273685358e-06  2.3965177781359870e-05  4.3494009287159408e-05  7.0782376298872407e-05  1.0884201339289579e-04  1.6192573382167730e-04  2.3578400747648054e-04  3.3810137591494538e-04  4.7947938302339566e-04  9.9549400314202785e-06  2.3877386830850611e-05  4.3335872616401261e-05  7.0513172502728594e-05  1.0843476073352232e-04  1.6127664807630282e-04  2.3476811151279531e-04  3.3670001227403823e-04  4.7752860525041019e-04  9.9773462873820051e-06  2.3928829774200189e-05  4.3427972466147935e-05  7.0662212368843846e-05  1.0866358367445095e-04  1.6161736212916278e-04  2.3526608862201037e-04  3.3723487048853418e-04  4.7837589574906136e-04  1.0030354095635907e-05  2.4053721000449890e-05  4.3647124598034104e-05  7.1022385049968051e-05  1.0922148048364555e-04  1.6245298585060297e-04  2.3649319727492291e-04  3.3938811218214848e-04  4.8097124033352756e-04  9.9786122117473397e-06  2.3934201088593454e-05  4.3439091000685437e-05  7.0681376748260583e-05  1.0866941626708204e-04  1.6163892230813826e-04  2.3530959070938717e-04  3.3749416080353090e-04  4.7904256520747701e-04  9.9629745594631558e-06  2.3892003483738655e-05  4.3359705389933723e-05  7.0549910799910798e-05  1.0851417502355520e-04  1.6138144875565974e-04  2.3490867397779613e-04  3.3689133965919549e-04  4.7779157302718644e-04  9.9967660109889778e-06  2.3975441663659502e-05  4.3512674808399154e-05  7.0800316571140165e-05  1.0887669211645523e-04  1.6193620905691208e-04  2.3573511864116714e-04  3.3810554333368881e-04  4.7956987602015833e-04  9.9552589021278948e-06  2.3878153557532755e-05  4.3337273102461715e-05  7.0515484324684685e-05  1.0841383286597228e-04  1.6125781289366703e-04  2.3475286741925228e-04  3.3669193120600127e-04  4.7753551508666892e-04  9.9402794171421505e-06  2.3839870743835867e-05  4.3266371084538235e-05  7.0398933117443718e-05  1.0828262267670308e-04  1.6103747648055222e-04  2.3440844693245477e-04  3.3617585455947285e-04  4.7678453325239456e-04  9.9219818119333780e-06  2.3795854364516700e-05  4.3192831230998152e-05  7.0274863376074137e-05  1.0806306498689633e-04  1.6071828534203192e-04  2.3385615401549931e-04  3.3542428169297533e-04  4.7574774545511289e-04  9.9157918502790210e-06  2.3778538973506791e-05  4.3153339347234976e-05  7.0213308516864359e-05  1.0797040695043059e-04  1.6058183744505072e-04  2.3385237398809711e-04  3.3533759831527732e-04  4.7521778010517490e-04  9.8652464772808202e-06  2.3659722407809447e-05  4.2932996366817910e-05  6.9847452177751457e-05  1.0741692376003975e-04  1.5972055402779795e-04  2.3251992403483523e-04  3.3331065748132271e-04  4.7316917638207112e-04  9.8227206482004448e-06  2.3557659650119689e-05  4.2754454378735041e-05  6.9565679206240461e-05  1.0697173253770842e-04  1.5909828653171143e-04  2.3148982758647296e-04  3.3202971603585318e-04  4.7053393052021164e-04  9.7942985071153288e-06  2.3489448826130577e-05  4.2636479216984213e-05  6.9381399307677505e-05  1.0665574126011990e-04  1.5863005891503246e-04  2.3091053588153443e-04  3.3115603235200908e-04  4.6998107964568714e-04  9.7591894528958889e-06  2.3405187485558976e-05  4.2476531212587432e-05  6.9111637276852989e-05  1.0630026492108868e-04  1.5813069633285881e-04  2.3023612969297336e-04  3.3011888041989401e-04  4.6805293287888183e-04  9.7189390639851325e-06  2.3305561839159772e-05  4.2298012247088401e-05  6.8822668098378337e-05  1.0580751676159128e-04  1.5736926428078224e-04  2.2906813858669661e-04  3.2868947879649557e-04  4.6601917310806762e-04  9.6758059277002317e-06  2.3205548698168599e-05  4.2113449066127906e-05  6.8508094509978079e-05  1.0537620034756223e-04  1.5666118914170468e-04  2.2803386653935664e-04  3.2699758429344250e-04  4.6366252622498383e-04  9.6382356650215328e-06  2.3118402704747076e-05  4.1946728390862553e-05  6.8263297193449368e-05  1.0496054699615787e-04  1.5613907741107713e-04  2.2722898636418076e-04  3.2580011829663746e-04  4.6192476265893845e-04  9.6107044298410216e-06  2.3047963287003981e-05  4.1838192492926751e-05  6.8070274259812713e-05  1.0466857851365585e-04  1.5565849221799155e-04  2.2647140890741380e-04  3.2477658198004633e-04  4.6020127314250203e-04  9.5767894794374087e-06  2.2970724822934940e-05  4.1684642361650148e-05  6.7819526869405955e-05  1.0428172911536304e-04  1.5508054867185983e-04  2.2580809868255614e-04  3.2374815518021460e-04  4.5902512896500713e-04  9.5437921768803946e-06  2.2888302336210309e-05  4.1537689434156810e-05  6.7582302954338758e-05  1.0391831055722722e-04  1.5454094536904162e-04  2.2492719225530866e-04  3.2251329228216719e-04  4.5726305811477630e-04  9.5091796770141457e-06  2.2805231054578989e-05  4.1386777321905655e-05  6.7336415092045243e-05  1.0353945484509186e-04  1.5397591558374835e-04  2.2410238155878837e-04  3.2133019264213303e-04  4.5560508064479421e-04  9.4748137799971488e-06  2.2720425532196664e-05  4.1231371820327212e-05  6.7082210566171696e-05  1.0314704161751287e-04  1.533421015