<?xml version="1.0"?>
<VTKFile type="UnstructuredGrid"  version="0.1"  >
<UnstructuredGrid>
<Piece  NumberOfPoints="6649" NumberOfCells="12859">
<Points>
<DataArray  type="Float64"  NumberOfComponents="3"  format="ascii">0 0 0  0.75 0 0  0.85 0 0  1.8 0 0  1.8 0.1 0  0 0.1 0  0.0197667577360765 0 0  0.03953351547215212 0 0  0.05930027320823922 0 0  0.07906703094433311 0 0  0.09883378868041724 0 0  0.1186005464164749 0 0  0.1383673041525551 0 0  0.158134061888649 0 0  0.1779008196247429 0 0  0.1976675773608367 0 0  0.2174343350969306 0 0  0.2372010928330244 0 0  0.2569678505691183 0 0  0.2767346083052122 0 0  0.296501366041306 0 0  0.3162681237773999 0 0  0.3360348815134938 0 0  0.3558016392495876 0 0  0.3755683969856956 0 0  0.3953351547219259 0 0  0.415101912458166 0 0  0.4348686701944061 0 0  0.4546354279306462 0 0  0.4744021856668862 0 0  0.4941689434031263 0 0  0.5132321578495721 0 0  0.5297803041756365 0 0  0.5440483641191814 0 0  0.5563504982721431 0 0  0.5669575821633017 0 0  0.5761031680953438 0 0  0.5839886295292807 0 0  0.5907875923391745 0 0  0.5966497596361832 0 0  0.6017493169781984 0 0  0.6066910064122585 0 0  0.6116326958463185 0 0  0.6165743852803786 0 0  0.6215160747144387 0 0  0.6264577641484987 0 0  0.6313994535825588 0 0  0.6363411430166188 0 0  0.6412828324506789 0 0  0.646224521884739 0 0  0.6511662113187989 0 0  0.6561079007528591 0 0  0.6610495901869191 0 0  0.6659912796209791 0 0  0.6709329690550392 0 0  0.6758746584890992 0 0  0.6808163479231593 0 0  0.6857580373572194 0 0  0.6906997267912793 0 0  0.6956414162253395 0 0  0.7005831056593994 0 0  0.7055247950934596 0 0  0.7104664845275196 0 0  0.7154081739615796 0 0  0.7203498633956397 0 0  0.7252915528296997 0 0  0.7302332422637597 0 0  0.7351749316978198 0 0  0.7401166211318799 0 0  0.74505831056594 0 0  0.8549639029829768 0 0  0.8599278059659535 0 0  0.8648917089489304 0 0  0.8698556119319072 0 0  0.874819514914884 0 0  0.8797834178978607 0 0  0.8847473208808376 0 0  0.8897112238638144 0 0  0.8946751268467912 0 0  0.899639029829768 0 0  0.9046029328127448 0 0  0.9095668357957216 0 0  0.9145307387786984 0 0  0.9194946417616752 0 0  0.9244585447446521 0 0  0.9294224477276288 0 0  0.9343863507106056 0 0  0.9393502536935824 0 0  0.9443141566765593 0 0  0.949278059659536 0 0  0.9542419626425128 0 0  0.9592058656254896 0 0  0.9641697686084665 0 0  0.9691336715914421 0 0  0.9740975745744045 0 0  0.9790614775573583 0 0  0.9840253805403074 0 0  0.9889892835232696 0 0  0.9939531865062405 0 0  0.9989170894892173 0 0  1.003880992472194 0 0  1.008844895455171 0 0  1.013808798438148 0 0  1.018772701421125 0 0  1.023736604404101 0 0  1.028700507387078 0 0  1.033664410370055 0 0  1.038628313353032 0 0  1.043592216336009 0 0  1.048556119318985 0 0  1.053520022301962 0 0  1.058483925284939 0 0  1.063447828267916 0 0  1.068411731250893 0 0  1.073375634233869 0 0  1.078339537216846 0 0  1.083303440199823 0 0  1.0882673431828 0 0  1.093231246165776 0 0  1.098195149148753 0 0  1.10315905213173 0 0  1.108122955114707 0 0  1.113086858097684 0 0  1.11805076108066 0 0  1.123014664063637 0 0  1.127978567046614 0 0  1.132942470029591 0 0  1.137906373012568 0 0  1.142870275995544 0 0  1.147834178978521 0 0  1.152798081961498 0 0  1.157761984944475 0 0  1.162725887927452 0 0  1.167689790910428 0 0  1.172653693893405 0 0  1.177617596876382 0 0  1.182581499859359 0 0  1.187545402842336 0 0  1.192509305825312 0 0  1.197473208808289 0 0  1.202528416558545 0 0  1.208286980028268 0 0  1.214970234825317 0 0  1.222726666214885 0 0  1.231728598035476 0 0  1.242176031676204 0 0  1.254301080864354 0 0  1.268373130368153 0 0  1.284704824362368 0 0  1.303609701700496 0 0  1.323465313632403 0 0  1.343320925564331 0 0  1.363176537496441 0 0  1.383032149428385 0 0  1.402887761360444 0 0  1.422743373292381 0 0  1.442598985224447 0 0  1.462454597156384 0 0  1.482310209088442 0 0  1.502165821020387 0 0  1.52202143295243 0 0  1.5418770448844 0 0  1.561732656816418 0 0  1.58158826874835 0 0  1.601443880680319 0 0  1.621299492612267 0 0  1.641155104544221 0 0  1.661010716476183 0 0  1.680866328408122 0 0  1.7007219403401 0 0  1.720577552272023 0 0  1.740433164204017 0 0  1.760288776135996 0 0  1.780144388068006 0 0  1.8 0.0001 0  1.8 0.00024 0  1.8 0.000436 0  1.8 0.0007103999999999999 0  1.8 0.00109456 0  1.8 0.001632384 0  1.8 0.0023853376 0  1.8 0.003439472639999999 0  1.8 0.004915261695999998 0  1.8 0.02294915701755847 0  1.8 0.04098305233910775 0  1.8 0.05901694766070642 0  1.8 0.07705084298235496 0  1.8 0.09508473830400001 0  1.8 0.09656052736000001 0  1.8 0.09761466240000001 0  1.8 0.098367616 0  1.8 0.09890544000000001 0  1.8 0.09928960000000001 0  1.8 0.099564 0  1.8 0.09976 0  1.8 0.0999 0  1.780054611080893 0.1 0  1.760109222161742 0.1 0  1.740163833242603 0.1 0  1.720218444323514 0.1 0  1.700273055404377 0.1 0  1.680327666485227 0.1 0  1.660382277566116 0.1 0  1.640436888647012 0.1 0  1.620491499727862 0.1 0  1.600546110808719 0.1 0  1.58060072188963 0.1 0  1.560655332970497 0.1 0  1.540709944051346 0.1 0  1.520764555132233 0.1 0  1.500819166213187 0.1 0  1.480873777294068 0.1 0  1.460928388374922 0.1 0  1.440982999455856 0.1 0  1.421037610536787 0.1 0  1.401092221617639 0.1 0  1.381146832698522 0.1 0  1.361201443779477 0.1 0  1.341256054860361 0.1 0  1.32131066594121 0.1 0  1.301365277022092 0.1 0  1.282656370697047 0.1 0  1.266540829382826 0.1 0  1.252664371060761 0.1 0  1.240715900130383 0.1 0  1.230427543971492 0.1 0  1.22156864397028 0.1 0  1.213940595522496 0.1 0  1.207372383276256 0.1 0  1.201716755059164 0.1 0  1.19668766017256 0.1 0  1.191701312942788 0.1 0  1.186714965713021 0.1 0  1.181728618483264 0.1 0  1.176742271253507 0.1 0  1.17175592402375 0.1 0  1.166769576793993 0.1 0  1.161783229564236 0.1 0  1.156796882334479 0.1 0  1.151810535104719 0.1 0  1.146824187874946 0.1 0  1.141837840645174 0.1 0  1.136851493415395 0.1 0  1.131865146185607 0.1 0  1.12687879895582 0.1 0  1.121892451726041 0.1 0  1.116906104496269 0.1 0  1.111919757266497 0.1 0  1.106933410036737 0.1 0  1.10194706280698 0.1 0  1.096960715577223 0.1 0  1.091974368347466 0.1 0  1.08698802111771 0.1 0  1.08200167388795 0.1 0  1.077015326658178 0.1 0  1.072028979428405 0.1 0  1.067042632198628 0.1 0  1.06205628496884 0.1 0  1.057069937739053 0.1 0  1.052083590509273 0.1 0  1.047097243279501 0.1 0  1.042110896049729 0.1 0  1.037124548819967 0.1 0  1.03213820159021 0.1 0  1.027151854360453 0.1 0  1.022165507130696 0.1 0  1.01717915990094 0.1 0  1.012192812671182 0.1 0  1.007206465441417 0.1 0  1.002220118211653 0.1 0  0.9972337709818865 0.1 0  0.9922474237521142 0.1 0  0.987261076522342 0.1 0  0.9822747292925696 0.1 0  0.9772883820627973 0.1 0  0.9723020348330251 0.1 0  0.9673156876032528 0.1 0  0.9623293403734806 0.1 0  0.9573429931437083 0.1 0  0.952356645913936 0.1 0  0.9473702986841638 0.1 0  0.9423839514543916 0.1 0  0.9373976042246193 0.1 0  0.9324112569948469 0.1 0  0.9274249097650747 0.1 0  0.9224385625353024 0.1 0  0.9174522153055302 0.1 0  0.9124658680757579 0.1 0  0.9074795208459857 0.1 0  0.9024931736162134 0.1 0  0.8975068263864333 0.1 0  0.8925204791566458 0.1 0  0.8875341319268581 0.1 0  0.8825477846970601 0.1 0  0.8775614374672571 0.1 0  0.8725750902374539 0.1 0  0.8675887430076509 0.1 0  0.8626023957778479 0.1 0  0.857616048548045 0.1 0  0.8526297013182419 0.1 0  0.8476433540884389 0.1 0  0.8426570068586375 0.1 0  0.8376706596288421 0.1 0  0.8326843123990469 0.1 0  0.8276979651692515 0.1 0  0.8227116179394561 0.1 0  0.8177252707096607 0.1 0  0.8127389234798611 0.1 0  0.8077525762500579 0.1 0  0.8027662290202549 0.1 0  0.7977798817904576 0.1 0  0.7927935345606625 0.1 0  0.787807187330867 0.1 0  0.7828208401010643 0.1 0  0.7778344928712615 0.1 0  0.7728481456414584 0.1 0  0.7678617984116554 0.1 0  0.7628754511818525 0.1 0  0.7578891039520492 0.1 0  0.7529027567222462 0.1 0  0.7479164094924433 0.1 0  0.7429300622626402 0.1 0  0.7379437150328372 0.1 0  0.7329573678030343 0.1 0  0.7279710205732413 0.1 0  0.7229846733434535 0.1 0  0.717998326113666 0.1 0  0.7130119788838654 0.1 0  0.7080256316540623 0.1 0  0.7030392844242594 0.1 0  0.6980529371944564 0.1 0  0.6930665899646533 0.1 0  0.6880802427348505 0.1 0  0.6830938955050474 0.1 0  0.6781075482752443 0.1 0  0.6731212010454415 0.1 0  0.6681348538156384 0.1 0  0.6631485065858354 0.1 0  0.6581621593560409 0.1 0  0.6531758121262534 0.1 0  0.6481894648964657 0.1 0  0.6432031176666668 0.1 0  0.6382167704368638 0.1 0  0.6332304232070607 0.1 0  0.6282440759772578 0.1 0  0.6232577287474548 0.1 0  0.618271381517653 0.1 0  0.6132850342878655 0.1 0  0.6082986870580673 0.1 0  0.603312339828264 0.1 0  0.5982832449416711 0.1 0  0.5926276167246765 0.1 0  0.586059404478541 0.1 0  0.5784313560308749 0.1 0  0.5695724560297908 0.1 0  0.5592840998710413 0.1 0  0.5473356289408138 0.1 0  0.5334591706189113 0.1 0  0.5173436293048621 0.1 0  0.4986347229799815 0.1 0  0.478689334060789 0.1 0  0.4587439451415785 0.1 0  0.4387985562224006 0.1 0  0.418853167303197 0.1 0  0.3989077783839854 0.1 0  0.3789623894647756 0.1 0  0.3590170005456041 0.1 0  0.3390716116263919 0.1 0  0.3191262227071796 0.1 0  0.2991808337879986 0.1 0  0.2792354448687984 0.1 0  0.2592900559495861 0.1 0  0.2393446670303738 0.1 0  0.2193992781112049 0.1 0  0.1994538891919926 0.1 0  0.1795085002727801 0.1 0  0.159563111353596 0.1 0  0.1396177224343995 0.1 0  0.119672333515187 0.1 0  0.09972694459597498 0.1 0  0.07978155567680578 0.1 0  0.05983616675759373 0.1 0  0.03989077783838124 0.1 0  0.01994538891919428 0.1 0  0 0.0999 0  0 0.09976 0  0 0.099564 0  0 0.09928960000000001 0  0 0.09890544000000001 0  0 0.098367616 0  0 0.09761466240000001 0  0 0.09656052736000001 0  0 0.09508473830400001 0  0 0.07705084298244591 0  0 0.05901694766089675 0  0 0.04098305233930213 0  0 0.02294915701764492 0  0 0.004915261695999998 0  0 0.003439472639999999 0  0 0.0023853376 0  0 0.001632384 0  0 0.00109456 0  0 0.0007103999999999999 0  0 0.000436 0  0 0.00024 0  0 0.0001 0  0.8497592363325269 0.004900857027472395 0
[...]
<PointData  Scalars="Pressure"> 
<DataArray  type="Float64"  Name="Pressure"  format="ascii">4.8906240679748372e+00  4.0478514178788361e+00  -5.3856661721886623e-01  0.0000000000000000e+00  0.0000000000000000e+00  4.8906235571731926e+00  4.8589972555736338e+00  4.8273704805078061e+00  4.7957437556179183e+00  4.7641170977995380e+00  4.7324905364228096e+00  4.7008641190755274e+00  4.6692379057696369e+00  4.6376120147699798e+00  4.6059865882632582e+00  4.5743618828545509e+00  4.5427382587082512e+00  4.5111162773761748e+00  4.4794967689102361e+00  4.4478810550764525e+00  4.4162709986263620e+00  4.3846694226701546e+00  4.3530805049684309e+00  4.3215120053995015e+00  4.2899728254704650e+00  4.2584797821114400e+00  4.2270500322818334e+00  4.1957280827230941e+00  4.1645589673996888e+00  4.1336234443488955e+00  4.1030399051498323e+00  4.0740565607800603e+00  4.0494952374848880e+00  4.0289133773004320e+00  4.0118032276163955e+00  3.9976190756617989e+00  3.9859249568113428e+00  3.9763103843852519e+00  3.9684355561440077e+00  3.9619898291892754e+00  3.9566718843282955e+00  3.9517992544350995e+00  3.9472307205473478e+00  3.9429995920320664e+00  3.9391300234836191e+00  3.9356589804006066e+00  3.9326164981728708e+00  3.9300437899412661e+00  3.9279698445749456e+00  3.9264395605710436e+00  3.9254942040072613e+00  3.9251691270283806e+00  3.9255059690729621e+00  3.9265466131647044e+00  3.9283289096634046e+00  3.9308843543281076e+00  3.9342502321044912e+00  3.9384463316449239e+00  3.9434921014379656e+00  3.9493908812785397e+00  3.9561445880684980e+00  3.9637232406122669e+00  3.9720781577059028e+00  3.9811431356456568e+00  3.9908042852954964e+00  4.0008900130145104e+00  4.0111490797481766e+00  4.0214064266251013e+00  4.0316812263434523e+00  4.0441718002747757e+00  -5.4112838233899474e-01  -5.4504471176140712e-01  -5.4447572800142574e-01  -5.4231885699806215e-01  -5.3878023779769313e-01  -5.3403557973937799e-01  -5.2809333919832724e-01  -5.2091163468761625e-01  -5.1244323340474240e-01  -5.0265991313873593e-01  -4.9153263006705461e-01  -4.7904159004547958e-01  -4.6517188615357880e-01  -4.4990240474683946e-01  -4.3323283410504876e-01  -4.1515171217928903e-01  -3.9566512379925500e-01  -3.7477048028173587e-01  -3.5248518427800379e-01  -3.2882326546423885e-01  -3.0381053934924190e-01  -2.7747872923985689e-01  -2.4987125175430278e-01  -2.2103819263674360e-01  -1.9104362816869713e-01  -1.5996180743882829e-01  -1.2787785767341062e-01  -9.4890410279386495e-02  -6.1109651914758166e-02  -2.6662282637724154e-02  8.3288679387731601e-03  4.3705752634581624e-02  7.9326468608270542e-02  1.1502083206156659e-01  1.5062787033300892e-01  1.8598094230568482e-01  2.2090542564425325e-01  2.5523379848170197e-01  2.8881160506116993e-01  3.2147492880363437e-01  3.5307605115475243e-01  3.8350292446548406e-01  4.1261687109040707e-01  4.4032057537893515e-01  4.6654230950473963e-01  4.9120325285179312e-01  5.1425379737681298e-01  5.3568225135320191e-01  5.5546440975546985e-01  5.7360503205310687e-01  5.9012948704163626e-01  6.0507970138403655e-01  6.1849936343539014e-01  6.3044440365805587e-01  6.4099168507606363e-01  6.5021814866467520e-01  6.5819808404334235e-01  6.6501687462509529e-01  6.7076409471845999e-01  6.7552363327334330e-01  6.7938154951696372e-01  6.8241750751720143e-01  6.8471409213055445e-01  6.8634457288669182e-01  6.8738241938423794e-01  6.8789224149850448e-01  6.8793523875457308e-01  6.8756367645841476e-01  6.8683393666315651e-01  6.8578266203582394e-01  6.8443606055627060e-01  6.8260321781711353e-01  6.8012958112498745e-01  6.7686811345748599e-01  6.7266159182105278e-01  6.6732558252531460e-01  6.6063435157246608e-01  6.5231854163829184e-01  6.4219185871650597e-01  6.2916073975674314e-01  6.1494861266553391e-01  5.9917581958004007e-01  5.8176163325259500e-01  5.6429655034059767e-01  5.4420791078788566e-01  5.2353810600457495e-01  5.0140534943999371e-01  4.7899288393224215e-01  4.5471052768731074e-01  4.3000246786562446e-01  4.0408557951774071e-01  3.7781016821601643e-01  3.5071882245551578e-01  3.2311141370937374e-01  2.9499146748771021e-01  2.6648360322925208e-01  2.3762514494940851e-01  2.0843441485008557e-01  1.7895212143304060e-01  1.4922573915577098e-01  1.1925828655938933e-01  8.9095044299402723e-02  5.8559726845034646e-02  3.0478211005469758e-02  0.0000000000000000e+00  0.0000000000000000e+00  0.0000000000000000e+00  0.0000000000000000e+00  0.0000000000000000e+00  0.0000000000000000e+00  0.0000000000000000e+00  0.0000000000000000e+00  0.0000000000000000e+00  0.0000000000000000e+00  0.0000000000000000e+00  0.0000000000000000e+00  0.0000000000000000e+00  0.0000000000000000e+00  0.0000000000000000e+00  0.0000000000000000e+00  0.0000000000000000e+00  0.0000000000000000e+00  0.0000000000000000e+00  0.0000000000000000e+00  0.0000000000000000e+00  0.0000000000000000e+00  2.5856850714206053e-02  5.9561408568787902e-02  8.9242519457853289e-02  1.1999757905765202e-01  1.5002533571166843e-01  1.7996491274973828e-01  2.0965188665837814e-01  2.3905052078936093e-01  2.6812406911047926e-01  2.9687451222010353e-01  3.2520197229312581e-01  3.5314688031095320e-01  3.8040939964862697e-01  4.0756624923877499e-01  4.3374278519191906e-01  4.5970640231727050e-01  4.8450816762475563e-01  5.0874912650059678e-01  5.3133042430845612e-01  5.5313930909744324e-01  5.7333973617415301e-01  5.9225245972245200e-01  6.0744802395076791e-01  6.2072219059658407e-01  6.3023413895839098e-01  6.3542450385869298e-01  6.3605304009404262e-01  6.3399302866686180e-01  6.2974708834944315e-01  6.2430206409551081e-01  6.1818341170570990e-01  6.1181545251020564e-01  6.0549489659281075e-01  5.9942722792682146e-01  5.9354383782746389e-01  5.8725270748131020e-01  5.8049054904404018e-01  5.7326063228290847e-01  5.6555522935463343e-01  5.5737489589720934e-01  5.4871559196627129e-01  5.3957638109213346e-01  5.2995394481765790e-01  5.1984931322595107e-01  5.0926041880269091e-01  4.9818804139854866e-01  4.8662824634314589e-01  4.7458224778468849e-01  4.6204859288707878e-01  4.4902534079732576e-01  4.3551189229557502e-01  4.2150777502058367e-01  4.0700976620639029e-01  3.9202109196677642e-01  3.7653469433328068e-01  3.6055489396735430e-01  3.4407536533616995e-01  3.2710062567250059e-01  3.0962895775447946e-01  2.9166200269630560e-01  2.7319577354101487e-01  2.5424409481882143e-01  2.3480676717819565e-01  2.1489143995456672e-01  1.9450703273087983e-01  1.7366336891281323e-01  1.5237503451888521e-01  1.3066268805957310e-01  1.0854121648085904e-01  8.6040807742243083e-02  6.3176213668544645e-02  3.9986862488312826e-02  1.6505404030534920e-02  -7.2208754613972493e-03  -3.1151878746495023e-02  -5.5261565032989554e-02  -7.9498514628376135e-02  -1.0378988561474277e-01  -1.2809093036633898e-01  -1.5235218315101656e-01  -1.7650224629234335e-01  -2.0049500098263670e-01  -2.2425895085290604e-01  -2.4772622193487390e-01  -2.7083652717198531e-01  -2.9352141992237984e-01  -3.1570809637225850e-01  -3.3732670072319576e-01  -3.5831453959296428e-01  -3.7856879721004516e-01  -3.9803858653050661e-01  -4.1661397623714536e-01  -4.3421842284236872e-01  -4.5068268402769285e-01  -4.6591529384226965e-01  -4.7971490441087566e-01  -4.9189079971894423e-01  -5.0219186894813561e-01  -5.1030305586636038e-01  -5.1581286840580820e-01  -5.1817478742881440e-01  -5.1670491665305596e-01  -5.1059211497939616e-01  -4.9873685835319226e-01  -4.7975110682540528e-01  -4.5211611673605684e-01  -4.1374254572648561e-01  -3.6257848207226095e-01  -2.9589071270736000e-01  -2.1140002051616275e-01  -1.0668931131745416e-01  1.9929436698183839e-02  1.6956649270178836e-01  3.4183493735315357e-01  5.3541258911543121e-01  7.4692217087249568e-01  9.7155124159282269e-01  1.2041338955762357e+00  1.4387078794287824e+00  1.6696269252742675e+00  1.8918175947208238e+00  2.1013240309086529e+00  2.2954158085183480e+00  2.4725045120255391e+00  2.6321000408037132e+00  2.7745674832988962e+00  2.9007671849909338e+00  3.0120517602256274e+00  3.1098435902696435e+00  3.1956994766662050e+00  3.2711101285993935e+00  3.3374133080262616e+00  3.3958665504879191e+00  3.4476024513234691e+00  3.4935263874680644e+00  3.5344899181981231e+00  3.5712090639392344e+00  3.6042638570960857e+00  3.6341782255649053e+00  3.6613935263655182e+00  3.6862647510694373e+00  3.7091185014179011e+00  3.7302113309012652e+00  3.7497806824191979e+00  3.7680198395147619e+00  3.7850904473604712e+00  3.8011421211460346e+00  3.8162955530317793e+00  3.8306639121281094e+00  3.8443337413351508e+00  3.8573876837590602e+00  3.8699012567202460e+00  3.8819296999698669e+00  3.8935310753312238e+00  3.9048484433350912e+00  3.9171742513294947e+00  3.9310087076453559e+00  3.9465251090732907e+00  3.9639165361241897e+00  3.9834030138129566e+00  4.0052973406143542e+00  4.0299456017975279e+00  4.0578035275389235e+00  4.0893860655157015e+00  4.1224713152600350e+00  4.1551482005910216e+00  4.1875725810840789e+00  4.2198173096458449e+00  4.2519493183115866e+00  4.2840060742713240e+00  4.3160139306143481e+00  4.3479890800049121e+00  4.3799425706794537e+00  4.4118824093157576e+00  4.4438128791794167e+00  4.4757371899780418e+00  4.5076574759916559e+00  4.5395752056856873e+00  4.5714911568849930e+00  4.6034059767227014e+00  4.6353200433840334e+00  4.6672336266476986e+00  4.6991468700868451e+00  4.7310599008193730e+00  4.7629727802968480e+00  4.7948855616099246e+00  4.8267982734443766e+00  4.8587109323181146e+00  4.8906235571121917e+00  4.8906235571253456e+00  4.8906235571015673e+00  4.8906235568830265e+00  4.8906235568176442e+00  4.8906235576459132e+00  4.8906235561856217e+00  4.8906235597357872e+00  4.8906235533709879e+00  4.8906235841400205e+00  4.8906237178025869e+00  4.8906239052433467e+00  4.8906240403346217e+00  4.8906240693706415e+00  4.8906240691174965e+00  4.8906240678832225e+00  4.8906240681604638e+00  4.8906240679259838e+00  4.8906240679430297e+00  4.8906240679390871e+00  4.8906240679265096e+00  4.8906240679788411e+00  -5.3505331877894713e-01  -5.3110041865701896e-01  -5.3658642193945327e-01  -5.5093696340419773e-01  -5.7172694296177440e-01  -5.9759297629632846e-01  -6.3146967685779132e-01  -6.8140398564166471e-01  -7.5722546769893950e-01  -8.6918913552513166e-01  -1.0227546026718484e+00  -1.2170695717763322e+00  -1.4329943358047048e+00  -1.6303665797363549e+00  -1.7629752280928788e+00  -1.7710836606299860e+00  -1.6205834446704122e+00  -1.2973174737148780e+00  -8.0915365481524315e-01  -1.8654005088655784e-01  5.3128295816829285e-01  1.2860181165329567e+00  2.0263337302454314e+00  2.6958013350415566e+00  3.2495015295421328e+00  3.6570597357590522e+00  3.9147260429240855e+00  4.0429645804838543e+00  4.0807010981203344e+00  4.0728123458914487e+00  4.0519879275470494e+00  -3.5819349611453116e-01  -3.5802508918578357e-01  -3.5779458023711430e-01  -3.5747268298753598e-01  -3.5702332324848546e-01  -3.5640411556221818e-01  -3.5554718929822537e-01  -3.5445146346252443e-01  -3.5274932113058277e-01  -3.7844838556469074e-01  -3.7827826880897109e-01  -3.7803627900553971e-01  -3.7770258516602473e-01  -3.7723699772094482e-01  -3.7660745353384817e-01  -3.7570495810635124e-01  -3.7452079584274672e-01  -3.7285417106096186e-01  -3.9790769695195538e-01  -3.9772622061429636e-01  -3.9747775575271660e-01  -3.9713103749850776e-01  -3.9664745217494907e-01  -3.9598262212689989e-01  -3.9506321415177581e-01  -3.9390811374116519e-01  -3.9207787781658077e-01  -4.1648346956946902e-01  -4.1629883809578572e-01  -4.1603672370854072e-01  -4.1567562824732873e-01  -4.1517241791993031e-01  -4.1449274277552006e-01  -4.1351858572940597e-01  -4.1226479214802997e-01  -4.1042194309498264e-01  -4.3407544847817664e-01  -4.3387747749592720e-01  -4.3360575435408161e-01  -4.3322742245760859e-01  -4.3270027679841833e-01  -4.3197846785905697e-01  -4.3098913726860116e-01  -4.2972097860331010e-01  -4.2782201363281880e-01  -4.5054107371071628e-01  -4.5033690543622990e-01  -4.5004932688506133e-01  -4.4965408361807840e-01  -4.4910447228672257e-01  -4.4835373098191461e-01  -4.4729583501121778e-01  -4.4598943150586345e-01  -4.4398879854003004e-01  -4.6575226812640486e-01  -4.6554309696739110e-01  -4.6523729925741525e-01  -4.6482226560785761e-01  -4.6424431853472437e-01  -4.6345752166440057e-01  -4.6236338805986682e-01  -4.6093273791694439e-01  -4.5892588579209209e-01  -4.7954971556602366e-01  -4.7932184016756740e-01  -4.7900586346802404e-01  -4.7856314636710484e-01  -4.7795300449843481e-01  -4.7713029658439665e-01  -4.7597831798572321e-01  -4.7450307673244935e-01  -4.7237513383650670e-01  -4.9171943491894771e-01  -4.9148092409420141e-01  -4.9114088355922464e-01  -4.9067404600819253e-01  -4.9002531291991225e-01  -4.8916350823540111e-01  -4.8794439794243744e-01  -4.8639654165310614e-01  -4.8415393839347337e-01  -5.0201387899264693e-01  -5.0174378344568915e-01  -5.0139394793313474e-01  -5.0089577361342719e-01  -5.0020783699605242e-01  -4.9927513659891987e-01  -4.9800266613642435e-01  -4.9637699190587287e-01  -4.9401407214138504e-01  -5.1010003085819677e-01  -5.0983214076933248e-01  -5.0944233537225958e-01  -5.0891310052317174e-01  -5.0818234432551179e-01  -5.0719002341203756e-01  -5.0582942030222178e-01  -5.0412505539820185e-01  -5.0164872501675684e-01  -5.1559566493915499e-01  -5.1529806734119998e-01  -5.1488677293601326e-01  -5.1431582909100726e-01  -5.1353230715114984e-01  -5.1247569403955651e-01  -5.1102720256799949e-01  -5.0924679992234434e-01  -5.0655010606297279e-01  -5.1795362583863236e-01  -5.1761894128952168e-01  -5.1717798421168149e-01  -5.1656410780156470e-01  -5.1572103543568981e-01  -5.1459163184052903e-01  -5.1304139846635965e-01  -5.1119841579445613e-01  -5.0834971461065581e-01  -5.1646087766084114e-01  -5.1611064383593397e-01  -5.1562420388401475e-01  -5.1496298535920038e-01  -5.1405418467756747e-01  -5.1284562216781937e-01  -5.1119024753767761e-01  -5.0922746892009607e-01  -5.0643945662403844e-01  -5.1031059708683846e-01  -5.0994523982497064e-01  -5.0941779645976204e-01  -5.0870294660566528e-01  -5.0772621396830775e-01  -5.0643069494696380e-01  -5.0469499648676774e-01  -5.0257946389579500e-01  -4.9982733906704019e-01  -4.9845329788338877e-01  -4.9802709691735725e-01  -4.9747066409412949e-01  -4.9669692983804087e-01  -4.9565342110426835e-01  -4.9427012131608983e-01  -4.9244423798389042e-01  -4.9037041590408931e-01  -4.8719368196465973e-01  -4.7939567909233799e-01  -4.7898475177905830e-01  -4.7836573940984572e-01  -4.7756110852387795e-01  -4.7641877490380008e-01  -4.7499026212735790e-01  -4.7301253641480967e-01  -4.7091369003234457e-01  -4.6781221795208772e-01  -4.5180149827025506e-01  -4.5131410467163946e-01  -4.5067658496858964e-01  -4.4976783151650124e-01  -4.4861556160842736e-01  -4.4706303131099079e-01  -4.4509362624557713e-01  -4.4314847809890551e-01  -4.4039015335766724e-01  -4.1338279994747135e-01  -4.1288666728144174e-01  -4.1219158773670300e-01  -4.1130386765602817e-01  -4.1004231508797789e-01  -4.0850342286992458e-01  -4.0636788330084617e-01  -4.0437331976250696e-01  -4.0135295561327472e-01  -3.6219433294303893e-01  -3.6167266312636631e-01  -3.6096827118779501e-01  -3.5997809415847171e-01  -3.5874307298236319e-01  -3.5717259403017859e-01  -3.5512098829812383e-01  -3.5369156747558872e-01  -3.5060528901901505e-01  -2.9550266699605410e-01  -2.9497253906513399e-01  -2.9424792041483278e-01  -2.9330603993549753e-01  -2.9203432397932466e-01  -2.9051693944489532e-01  -2.8847027696317995e-01  -2.8746470741826752e-01  -2.8408414794767484e-01  -2.1102562314669351e-01  -2.1050432979743519e-01  -2.0980111596249079e-01  -2.0886015910963471e-01  -2.0764943249424422e-01  -2.0625326646763015e-01  -2.0435129699417307e-01  -2.0376147986690737e-01  -2.0080272085634343e-01  -1.0631743568085905e-01  -1.0583930474058403e-01  -1.0514672659522026e-01  -1.0432152720255372e-01  -1.0320152450527546e-01  -1.0195970268460419e-01  -1.0045591145673534e-01  -9.9822368252436122e-02  -9.8727105242329735e-02  2.0241050176351600e-02  2.0666914244491508e-02  2.1260497409200881e-02  2.2008449675805307e-02  2.2957043713037761e-02  2.3986134088732854e-02  2.5143357340259718e-02  2.4636938332920726e-02  2.5160774325331238e-02  1.6984530814001261e-01  1.7019639854684207e-01  1.7065945683713485e-01  1.7124270097741179e-01  1.7196249870812241e-01  1.7265971549953205e-01  1.7345196314703615e-01  1.7234959713871073e-01  1.7188136871360765e-01  3.4200364849718645e-01  3.4225030502810239e-01  3.4256927638489509e-01  3.4297589597263178e-01  3.4344057778435699e-01  3.4370249362634997e-01  3.4410822076586145e-01  3.4186824203716804e-01  3.4149607254023961e-01  5.3553015353149303e-01  5.3564650004426095e-01  5.3577585664043081e-01  5.3595888681222348e-01  5.3608140783467295e-01  5.3594225011762653e-01  5.3563083945129708e-01  5.3368878153677035e-01  5.3119580163770663e-01  7.4688975977049099e-01  7.4686369768726080e-01  7.4680370007221641e-01  7.4667775181864615e-01  7.4647991073737896e-01  7.4597653211792647e-01  7.4537779908259605e-01  7.4185570046864469e-01  7.3990923695959288e-01  9.7145340811155367e-01  9.7128153471341372e-01  9.7103572572223895e-01  9.7066473581008672e-01  9.7009351678150302e-01  9.6922501640487058e-01  9.6781100673157894e-01  9.6449633667698520e-01  9.6125319493000894e-01  1.2038991267599013e+00  1.2035893437727649e+00  1.2031545358491251e+00  1.2025324377391708e+00  1.2017103919179328e+00  1.2003817480518268e+00  1.1986904646975534e+00  1.1950506796168230e+00  1.1908229894007407e+00  1.4384146231119810e+00  1.4379841031534162e+00  1.4373929417142883e+00  1.4365590324028328e+00  1.4354227068352394e+00  1.4338775616001820e+00  1.4317441001355566e+00  1.4281502809339639e+00  1.4236939611211705e+00  1.6692426899363868e+00  1.6687177828157538e+00  1.6679943822268450e+00  1.6670061008730266e+00  1.6656530249987778e+00  1.6637941280239581e+00  1.6614421521797924e+00  1.6578317669397735e+00  1.6534619667446484e+00  1.8913848520701522e+00  1.8907912583022730e+00  1.8899769929291177e+00  1.8888615788438916e+00  1.8874111411938095e+00  1.8853958414337266e+00  1.8828393777819568e+00  1.8793151623421898e+00  1.8749567355474956e+00  2.1008639261355251e+00  2.1002294431428750e+00  2.0993645440564190e+00  2.0981851056254897e+00  2.0965966576979880e+00  2.0945512499797783e+00  2.0919393096566021e+00  2.0885914011279811e+00  2.0841710097572368e+00  2.2949443678578532e+00  2.2942951832198011e+00  2.2934076840261164e+00  2.2922132693697894e+00  2.2906176442668000e+00  2.2885310121549125e+00  2.2858798655964634e+00  2.2828127698558252e+00  2.2784173466225224e+00  2.4720319134869650e+00  2.4713897991247058e+00  2.4705117760243338e+00  2.4693261007875011e+00  2.4677552558819769e+00  2.4657231351380196e+00  2.4631078278763194e+00  2.4602112913714209e+00  2.4564738743708028e+00  2.6316513997514606e+00  2.6310352149909728e+00  2.6301939125377629e+00  2.6290626022378758e+00  2.6275411324591258e+00  2.6255917919144949e+00  2.6231518285932873e+00  2.6204924406870402e+00  2.6164391559025346e+00  2.7741396703325778e+00  2.7735571859030914e+00  2.7727612966724071e+00  2.7716917136074652e+00  2.7702735044888276e+00  2.7684550171488223e+00  2.7660900348641997e+00  2.7637620341698250e+00  2.7600336666591572e+00  2.9003787910532677e+00  2.8998385225561574e+00  2.8991036950287841e+00  2.8981129925259772e+00  2.8967802843989245e+00  2.8951088448125590e+00  2.8928854093874459e+00  2.8907341434336242e+00  2.8874011545598841e+00  3.0116934181924324e+00  3.0112036027691422e+00  3.0105207877862790e+00  3.0096247893156316e+00  3.0084071895544846e+00  3.0068401212476994e+00  3.0048710144613602e+00  3.0028771942866417e+00  2.9998818062958339e+00  3.1095226807488072e+00  3.1090832732740177e+00  3.1084591751176354e+00  3.1076479040682830e+00  3.1065701496998370e+00  3.1051784345230979e+00  3.1033461374329931e+00  3.1015382760366461e+00  3.0988214372698355e+00  3.1954260601241260e+00  3.1950110227675301e+00  3.1944704233031724e+00  3.1937402167619098e+00  3.1927562225470765e+00  3.1915104543441908e+00  3.1898648431739289e+00  3.1882308365350909e+00  3.1857815408279491e+00  3.2708383891396835e+00  3.2704953868571471e+00  3.2