<?xml version="1.0"?>
<VTKFile type="UnstructuredGrid"  version="0.1"  >
<UnstructuredGrid>
<Piece  NumberOfPoints="6649" NumberOfCells="12859">
<Points>
<DataArray  type="Float64"  NumberOfComponents="3"  format="ascii">0 0 0  0.75 0 0  0.85 0 0  1.8 0 0  1.8 0.1 0  0 0.1 0  0.0197667577360765 0 0  0.03953351547215212 0 0  0.05930027320823922 0 0  0.07906703094433311 0 0  0.09883378868041724 0 0  0.1186005464164749 0 0  0.1383673041525551 0 0  0.158134061888649 0 0  0.1779008196247429 0 0  0.1976675773608367 0 0  0.2174343350969306 0 0  0.2372010928330244 0 0  0.2569678505691183 0 0  0.2767346083052122 0 0  0.296501366041306 0 0  0.3162681237773999 0 0  0.3360348815134938 0 0  0.3558016392495876 0 0  0.3755683969856956 0 0  0.3953351547219259 0 0  0.415101912458166 0 0  0.4348686701944061 0 0  0.4546354279306462 0 0  0.4744021856668862 0 0  0.4941689434031263 0 0  0.5132321578495721 0 0  0.5297803041756365 0 0  0.5440483641191814 0 0  0.5563504982721431 0 0  0.5669575821633017 0 0  0.5761031680953438 0 0  0.5839886295292807 0 0  0.5907875923391745 0 0  0.5966497596361832 0 0  0.6017493169781984 0 0  0.6066910064122585 0 0  0.6116326958463185 0 0  0.6165743852803786 0 0  0.6215160747144387 0 0  0.6264577641484987 0 0  0.6313994535825588 0 0  0.6363411430166188 0 0  0.6412828324506789 0 0  0.646224521884739 0 0  0.6511662113187989 0 0  0.6561079007528591 0 0  0.6610495901869191 0 0  0.6659912796209791 0 0  0.6709329690550392 0 0  0.6758746584890992 0 0  0.6808163479231593 0 0  0.6857580373572194 0 0  0.6906997267912793 0 0  0.6956414162253395 0 0  0.7005831056593994 0 0  0.7055247950934596 0 0  0.7104664845275196 0 0  0.7154081739615796 0 0  0.7203498633956397 0 0  0.7252915528296997 0 0  0.7302332422637597 0 0  0.7351749316978198 0 0  0.7401166211318799 0 0  0.74505831056594 0 0  0.8549639029829768 0 0  0.8599278059659535 0 0  0.8648917089489304 0 0  0.8698556119319072 0 0  0.874819514914884 0 0  0.8797834178978607 0 0  0.8847473208808376 0 0  0.8897112238638144 0 0  0.8946751268467912 0 0  0.899639029829768 0 0  0.9046029328127448 0 0  0.9095668357957216 0 0  0.9145307387786984 0 0  0.9194946417616752 0 0  0.9244585447446521 0 0  0.9294224477276288 0 0  0.9343863507106056 0 0  0.9393502536935824 0 0  0.9443141566765593 0 0  0.949278059659536 0 0  0.9542419626425128 0 0  0.9592058656254896 0 0  0.9641697686084665 0 0  0.9691336715914421 0 0  0.9740975745744045 0 0  0.9790614775573583 0 0  0.9840253805403074 0 0  0.9889892835232696 0 0  0.9939531865062405 0 0  0.9989170894892173 0 0  1.003880992472194 0 0  1.008844895455171 0 0  1.013808798438148 0 0  1.018772701421125 0 0  1.023736604404101 0 0  1.028700507387078 0 0  1.033664410370055 0 0  1.038628313353032 0 0  1.043592216336009 0 0  1.048556119318985 0 0  1.053520022301962 0 0  1.058483925284939 0 0  1.063447828267916 0 0  1.068411731250893 0 0  1.073375634233869 0 0  1.078339537216846 0 0  1.083303440199823 0 0  1.0882673431828 0 0  1.093231246165776 0 0  1.098195149148753 0 0  1.10315905213173 0 0  1.108122955114707 0 0  1.113086858097684 0 0  1.11805076108066 0 0  1.123014664063637 0 0  1.127978567046614 0 0  1.132942470029591 0 0  1.137906373012568 0 0  1.142870275995544 0 0  1.147834178978521 0 0  1.152798081961498 0 0  1.157761984944475 0 0  1.162725887927452 0 0  1.167689790910428 0 0  1.172653693893405 0 0  1.177617596876382 0 0  1.182581499859359 0 0  1.187545402842336 0 0  1.192509305825312 0 0  1.197473208808289 0 0  1.202528416558545 0 0  1.208286980028268 0 0  1.214970234825317 0 0  1.222726666214885 0 0  1.231728598035476 0 0  1.242176031676204 0 0  1.254301080864354 0 0  1.268373130368153 0 0  1.284704824362368 0 0  1.303609701700496 0 0  1.323465313632403 0 0  1.343320925564331 0 0  1.363176537496441 0 0  1.383032149428385 0 0  1.402887761360444 0 0  1.422743373292381 0 0  1.442598985224447 0 0  1.462454597156384 0 0  1.482310209088442 0 0  1.502165821020387 0 0  1.52202143295243 0 0  1.5418770448844 0 0  1.561732656816418 0 0  1.58158826874835 0 0  1.601443880680319 0 0  1.621299492612267 0 0  1.641155104544221 0 0  1.661010716476183 0 0  1.680866328408122 0 0  1.7007219403401 0 0  1.720577552272023 0 0  1.740433164204017 0 0  1.760288776135996 0 0  1.780144388068006 0 0  1.8 0.0001 0  1.8 0.00024 0  1.8 0.000436 0  1.8 0.0007103999999999999 0  1.8 0.00109456 0  1.8 0.001632384 0  1.8 0.0023853376 0  1.8 0.003439472639999999 0  1.8 0.004915261695999998 0  1.8 0.02294915701755847 0  1.8 0.04098305233910775 0  1.8 0.05901694766070642 0  1.8 0.07705084298235496 0  1.8 0.09508473830400001 0  1.8 0.09656052736000001 0  1.8 0.09761466240000001 0  1.8 0.098367616 0  1.8 0.09890544000000001 0  1.8 0.09928960000000001 0  1.8 0.099564 0  1.8 0.09976 0  1.8 0.0999 0  1.780054611080893 0.1 0  1.760109222161742 0.1 0  1.740163833242603 0.1 0  1.720218444323514 0.1 0  1.700273055404377 0.1 0  1.680327666485227 0.1 0  1.660382277566116 0.1 0  1.640436888647012 0.1 0  1.620491499727862 0.1 0  1.600546110808719 0.1 0  1.58060072188963 0.1 0  1.560655332970497 0.1 0  1.540709944051346 0.1 0  1.520764555132233 0.1 0  1.500819166213187 0.1 0  1.480873777294068 0.1 0  1.460928388374922 0.1 0  1.440982999455856 0.1 0  1.421037610536787 0.1 0  1.401092221617639 0.1 0  1.381146832698522 0.1 0  1.361201443779477 0.1 0  1.341256054860361 0.1 0  1.32131066594121 0.1 0  1.301365277022092 0.1 0  1.282656370697047 0.1 0  1.266540829382826 0.1 0  1.252664371060761 0.1 0  1.240715900130383 0.1 0  1.230427543971492 0.1 0  1.22156864397028 0.1 0  1.213940595522496 0.1 0  1.207372383276256 0.1 0  1.201716755059164 0.1 0  1.19668766017256 0.1 0  1.191701312942788 0.1 0  1.186714965713021 0.1 0  1.181728618483264 0.1 0  1.176742271253507 0.1 0  1.17175592402375 0.1 0  1.166769576793993 0.1 0  1.161783229564236 0.1 0  1.156796882334479 0.1 0  1.151810535104719 0.1 0  1.146824187874946 0.1 0  1.141837840645174 0.1 0  1.136851493415395 0.1 0  1.131865146185607 0.1 0  1.12687879895582 0.1 0  1.121892451726041 0.1 0  1.116906104496269 0.1 0  1.111919757266497 0.1 0  1.106933410036737 0.1 0  1.10194706280698 0.1 0  1.096960715577223 0.1 0  1.091974368347466 0.1 0  1.08698802111771 0.1 0  1.08200167388795 0.1 0  1.077015326658178 0.1 0  1.072028979428405 0.1 0  1.067042632198628 0.1 0  1.06205628496884 0.1 0  1.057069937739053 0.1 0  1.052083590509273 0.1 0  1.047097243279501 0.1 0  1.042110896049729 0.1 0  1.037124548819967 0.1 0  1.03213820159021 0.1 0  1.027151854360453 0.1 0  1.022165507130696 0.1 0  1.01717915990094 0.1 0  1.012192812671182 0.1 0  1.007206465441417 0.1 0  1.002220118211653 0.1 0  0.9972337709818865 0.1 0  0.9922474237521142 0.1 0  0.987261076522342 0.1 0  0.9822747292925696 0.1 0  0.9772883820627973 0.1 0  0.9723020348330251 0.1 0  0.9673156876032528 0.1 0  0.9623293403734806 0.1 0  0.9573429931437083 0.1 0  0.952356645913936 0.1 0  0.9473702986841638 0.1 0  0.9423839514543916 0.1 0  0.9373976042246193 0.1 0  0.9324112569948469 0.1 0  0.9274249097650747 0.1 0  0.9224385625353024 0.1 0  0.9174522153055302 0.1 0  0.9124658680757579 0.1 0  0.9074795208459857 0.1 0  0.9024931736162134 0.1 0  0.8975068263864333 0.1 0  0.8925204791566458 0.1 0  0.8875341319268581 0.1 0  0.8825477846970601 0.1 0  0.8775614374672571 0.1 0  0.8725750902374539 0.1 0  0.8675887430076509 0.1 0  0.8626023957778479 0.1 0  0.857616048548045 0.1 0  0.8526297013182419 0.1 0  0.8476433540884389 0.1 0  0.8426570068586375 0.1 0  0.8376706596288421 0.1 0  0.8326843123990469 0.1 0  0.8276979651692515 0.1 0  0.8227116179394561 0.1 0  0.8177252707096607 0.1 0  0.8127389234798611 0.1 0  0.8077525762500579 0.1 0  0.8027662290202549 0.1 0  0.7977798817904576 0.1 0  0.7927935345606625 0.1 0  0.787807187330867 0.1 0  0.7828208401010643 0.1 0  0.7778344928712615 0.1 0  0.7728481456414584 0.1 0  0.7678617984116554 0.1 0  0.7628754511818525 0.1 0  0.7578891039520492 0.1 0  0.7529027567222462 0.1 0  0.7479164094924433 0.1 0  0.7429300622626402 0.1 0  0.7379437150328372 0.1 0  0.7329573678030343 0.1 0  0.7279710205732413 0.1 0  0.7229846733434535 0.1 0  0.717998326113666 0.1 0  0.7130119788838654 0.1 0  0.7080256316540623 0.1 0  0.7030392844242594 0.1 0  0.6980529371944564 0.1 0  0.6930665899646533 0.1 0  0.6880802427348505 0.1 0  0.6830938955050474 0.1 0  0.6781075482752443 0.1 0  0.6731212010454415 0.1 0  0.6681348538156384 0.1 0  0.6631485065858354 0.1 0  0.6581621593560409 0.1 0  0.6531758121262534 0.1 0  0.6481894648964657 0.1 0  0.6432031176666668 0.1 0  0.6382167704368638 0.1 0  0.6332304232070607 0.1 0  0.6282440759772578 0.1 0  0.6232577287474548 0.1 0  0.618271381517653 0.1 0  0.6132850342878655 0.1 0  0.6082986870580673 0.1 0  0.603312339828264 0.1 0  0.5982832449416711 0.1 0  0.5926276167246765 0.1 0  0.586059404478541 0.1 0  0.5784313560308749 0.1 0  0.5695724560297908 0.1 0  0.5592840998710413 0.1 0  0.5473356289408138 0.1 0  0.5334591706189113 0.1 0  0.5173436293048621 0.1 0  0.4986347229799815 0.1 0  0.478689334060789 0.1 0  0.4587439451415785 0.1 0  0.4387985562224006 0.1 0  0.418853167303197 0.1 0  0.3989077783839854 0.1 0  0.3789623894647756 0.1 0  0.3590170005456041 0.1 0  0.3390716116263919 0.1 0  0.3191262227071796 0.1 0  0.2991808337879986 0.1 0  0.2792354448687984 0.1 0  0.2592900559495861 0.1 0  0.2393446670303738 0.1 0  0.2193992781112049 0.1 0  0.1994538891919926 0.1 0  0.1795085002727801 0.1 0  0.159563111353596 0.1 0  0.1396177224343995 0.1 0  0.119672333515187 0.1 0  0.09972694459597498 0.1 0  0.07978155567680578 0.1 0  0.05983616675759373 0.1 0  0.03989077783838124 0.1 0  0.01994538891919428 0.1 0  0 0.0999 0  0 0.09976 0  0 0.099564 0  0 0.09928960000000001 0  0 0.09890544000000001 0  0 0.098367616 0  0 0.09761466240000001 0  0 0.09656052736000001 0  0 0.09508473830400001 0  0 0.07705084298244591 0  0 0.05901694766089675 0  0 0.04098305233930213 0  0 0.02294915701764492 0  0 0.004915261695999998 0  0 0.003439472639999999 0  0 0.0023853376 0  0 0.001632384 0  0 0.00109456 0  0 0.0007103999999999999 0  0 0.000436 0  0 0.00024 0  0 0.0001 0  0.8497592363325269 0.004900857027472395 0
[...]
<PointData  Scalars="Reynolds"> 
<DataArray  type="Float64"  Name="Reynolds"  format="ascii">9.6714324542268869e-05  -1.4454466345207452e-03  1.6235667902770149e-05  -9.7125461340543950e-03  1.1671832068341648e-02  -1.4877868831450494e-04  1.3414672463133790e-04  5.5707005800057219e-05  4.4964860261346349e-05  1.0155992631442060e-05  -4.3511318644568473e-06  4.5872898002134666e-05  -5.7597501068087695e-05  4.7064531498799991e-05  -1.1602605306572539e-04  -8.1904979765127408e-05  4.3626661782432238e-05  1.3189526991485739e-05  -6.9276012338640206e-05  -1.2319827389902866e-04  8.5685840972749735e-05  3.1081231642316535e-06  6.5450142461322448e-05  8.3852514514626430e-05  3.1028291397249255e-05  -4.1650685008701254e-05  9.0511876759125033e-05  -4.6010354229517899e-05  1.6025272080689290e-04  4.3331833229184034e-04  6.9567000781888216e-04  8.8512253169845611e-05  -5.1498544122080536e-04  -3.9687393661430142e-04  -2.8659092007127430e-04  -2.7335526268517724e-04  -6.1298095147846129e-04  -1.1772177886371486e-03  -1.0343080788903600e-03  -1.0788875606739384e-05  9.7772119910067862e-04  1.1491250142016038e-03  1.5996762684997513e-03  -7.5906734681707914e-05  1.2172168901066303e-04  1.0106632386348037e-03  1.7234820813431080e-03  1.7545360744326176e-04  -2.6227076081830089e-03  5.4411845514424761e-04  8.5224782253758230e-04  -1.9452185862405449e-03  -1.5190363250023261e-03  -1.4126204242087329e-03  -2.5359564513557165e-03  -3.4365517277782781e-03  -2.1071925579729299e-03  -2.2354320264182503e-03  -2.7318906032082761e-03  -1.9715269352010164e-03  -1.8147986923088256e-03  -4.2654319199727907e-03  -5.6553984918465685e-03  -3.3967440474674477e-03  -2.9012884706917127e-03  -3.6433007479444121e-03  -3.6269653346308519e-03  -4.0125243282691948e-03  -3.6397332811664083e-03  1.5898174384117157e-03  1.2237669187880006e-03  8.2532740545011897e-03  1.4775586389415621e-03  -3.6162183929896582e-03  2.2670120387210395e-03  3.7478320001535791e-04  -1.4363044166715072e-03  3.0482501631917424e-03  -3.0288064928993491e-03  1.4231412990083447e-03  2.5272463259974555e-03  -3.9194123002080658e-04  6.0234472801369452e-03  3.5372395817758412e-03  2.4693569271546506e-03  3.2403879434348931e-03  3.9940134223759713e-03  3.0172620152398751e-03  2.0844699319959394e-03  1.3479640760661997e-03  -8.0554610939284372e-04  5.4294492887334766e-04  2.0887151746222287e-03  7.5730699685838990e-04  5.6864142734567766e-04  5.0873885743947143e-04  4.1101784012257905e-04  4.7109905191932517e-04  9.2619690469272417e-04  -1.9095358104212720e-04  -1.4239234934382355e-03  -6.5334426331989739e-04  -6.9557859053198060e-04  -4.7722576766628450e-04  -1.0280173436445596e-03  -1.3780480546900953e-03  1.0532464927131779e-03  3.8485117324828996e-03  3.5429301438897639e-03  5.7716512702835924e-03  -9.5298984387131794e-05  -2.6656714958994223e-03  8.3326053092245243e-03  1.0128773566563790e-03  -4.6372714313452744e-04  6.5092849171829179e-03  1.9860444293255276e-04  -6.5955827003017654e-03  -3.7001380073648231e-03  -6.4533986007715609e-03  -1.3626952683399587e-03  3.2545539337165428e-03  3.4416638717546556e-03  4.4658711149378055e-03  -3.7763774752431329e-04  -3.6017336765410777e-03  -2.7674979321309101e-03  -4.6882345582695637e-03  -1.1160765391594984e-03  2.4168343040343833e-03  1.5835686400145071e-03  2.1156450406703770e-03  -1.4272876700337435e-03  -3.4554622681779641e-03  3.8939534578685646e-04  2.6891472348541260e-03  1.2637424283109316e-03  8.5370795463311051e-04  5.2563998814054958e-04  9.7784601121144897e-04  1.5659116543894082e-03  9.7903007669775176e-04  8.1398095441073562e-04  1.1299600237153248e-03  -8.0098161613428029e-04  -2.2531221538440107e-04  1.2733525546411702e-03  7.1693371515448869e-04  9.5546350968724384e-04  1.0578491786500342e-03  9.7653332652998732e-04  1.3123392716723121e-03  -9.7861642581438361e-04  -9.1510442000506491e-05  1.0623393144717844e-03  2.6614153406413928e-04  1.4039143715115182e-03  -2.9909309137305220e-04  -3.3864746328344386e-04  -8.7536156523367343e-05  -3.4844233194568841e-04  5.2682485399242556e-04  5.4516157016638932e-04  2.6721266439256735e-04  2.8472213474274875e-04  2.1200179905342113e-06  -1.4487203120794513e-04  2.9437139975314343e-04  -1.3373240718871996e-04  -1.5596818050468499e-04  3.0688949569155776e-04  1.2513559358263979e-04  2.3276064994536170e-04  1.4836803231523187e-03  7.7210109040338359e-01  1.8730450975210142e+00  3.4282892994441223e+00  5.6089368126430390e+00  8.7391257018822763e+00  1.2795649718124048e+01  1.9892889968057361e+01  2.5642786680148596e+01  4.1516004708262017e+01  1.4563757546612050e+02  1.9803562082920678e+02  1.9763384339031654e+02  1.4541978801327340e+02  4.1709408362740419e+01  2.5835839816492243e+01  1.9494872435957824e+01  1.3141156339945896e+01  8.8056360440338182e+00  5.8151702151003670e+00  3.4109692088734334e+00  1.9451422419714972e+00  8.0327097806237402e-01  -3.8025239085510624e-03  -2.5387216920515221e-04  -1.5394018616213957e-03  1.2366059315682172e-04  2.5453806647089531e-04  1.1089390834534608e-04  -4.1645941964844467e-04  -8.6406552785157247e-05  1.6471602163267273e-04  -5.0173482773480473e-04  -3.5864999097670006e-04  -9.9392723778684867e-05  8.2274099982382212e-04  -1.5867686124772121e-04  -1.1372979322758763e-03  -1.3422103441682460e-04  -1.0687743372865943e-03  -1.5121435537114121e-03  -2.1637906034144179e-03  1.1347687747379169e-04  -1.1806886625445820e-03  -3.2967217915955455e-03  7.3856043342659754e-04  6.9220544083860476e-04  -4.5932433664126323e-03  -3.7713013245889030e-03  -2.6352208739194027e-03  -1.7337970322879859e-03  5.3971636540279372e-04  7.9719976896243578e-04  -2.3040940266774884e-03  -1.7485366195774421e-03  -2.3284391600365982e-04  7.6909997476363209e-04  -1.2064685901593175e-03  4.7031299716131068e-04  1.9520824218138713e-04  -1.0460699111084755e-03  -6.8650233231388395e-04  -7.2880417880184637e-04  -6.8399416489774308e-04  -6.2504091072804820e-04  -4.9472561797222364e-04  -6.3667078912114298e-04  -8.0096275360937283e-04  -5.6674217758707793e-04  -4.2316490287504436e-05  1.9685350484230531e-04  -4.3819031927156897e-05  -1.7407743704931340e-04  -2.0955159805686522e-04  -7.7315137260868322e-05  -3.6279644590802639e-05  5.8501701607993079e-05  1.3150468793220681e-04  2.5363523894341935e-04  1.8265322054268678e-04  7.6652556382837233e-04  1.0552340947379067e-03  1.0637024652995523e-03  -7.7787305007550169e-04  -2.8556260900429618e-03  -3.4975967959823650e-03  -9.8962078539086137e-04  1.8400068509157848e-03  2.4032054813738274e-03  1.4471768458347942e-03  1.3927706141997444e-03  1.7600994316721902e-03  1.6259867457418863e-03  2.1399196120524822e-03  -1.6967984542245976e-03  -5.5774064829167630e-03  -3.3556104528170627e-03  -4.3784856221247594e-03  -1.3877045140993810e-04  2.2812155895351165e-03  -5.1491788169069639e-03  -3.2868835843503714e-06  -2.4387608497586407e-04  -8.7837456294146549e-04  2.9879825650313287e-03  -5.4781913217284645e-03  -2.2097118916175438e-04  5.4500871642059676e-03  1.3035996059212467e-03  -6.8594648264848086e-03  2.0145029713089421e-04  -4.1579614253318899e-04  -4.4559529658786036e-04  1.4830525021173588e-04  -4.9929548539484375e-04  4.9163413867465196e-04  1.2645124512074622e-03  -1.9772665607017876e-03  -1.9938940989715305e-02  -4.2597027744332092e-03  8.1642749159877293e-03  1.2580953637372147e-02  8.4640798678814032e-03  9.3637284224687058e-03  2.2100344441206461e-02  1.8775391304236399e-02  1.9582132104173373e-02  -4.5034482888382460e-03  -8.4864052809866183e-03  2.0018171429412094e-02  1.4867695332584984e-02  1.6444957634100150e-02  2.0834219702664275e-02  -4.2552405595471755e-03  -3.8720148410258891e-03  2.1412664727363678e-02  9.1606795379358778e-03  7.1295951627385057e-03  3.1349371192907613e-03  -6.6247091189077314e-04  -4.3878460294582994e-03  -7.8047006682085583e-03  -1.0959522447151060e-02  -1.3189290397537180e-02  -1.4647064963773899e-02  -1.5627243282938009e-02  -1.5909247041630901e-02  -1.5303155114356879e-02  -1.4592815404503735e-02  -1.6320610811126738e-02  7.1563909470842525e-03  2.7107227856913392e-02  2.5515569545220652e-02  9.9165039571887732e-04  -1.7197763412238751e-02  -8.6930129662264113e-03  -5.0897899644805353e-03  -6.0493904488869901e-03  -4.8864577174741715e-03  -4.3127200787930631e-03  -3.7912404139268446e-03  -3.3722419267127389e-03  -2.9111182191042316e-03  -2.5125232037634263e-03  -2.8200849282355883e-03  1.7845527096964225e-03  4.7984062522448707e-03  -9.2756339402777223e-06  -3.0145481196176280e-03  -1.4529316786785745e-03  -8.2003841113105329e-04  -9.5231199780344432e-04  -1.0637559997267020e-03  9.6414180848295166e-04  6.6671269065565156e-04  -6.7460873466703309e-04  -6.6885552730517846e-04  -9.1273158142266420e-04  -4.3989803977016631e-04  -3.9662222242386330e-04  -6.1372834774738928e-04  -5.1597187547061793e-04  -2.4334051122394622e-04  -2.2515336061725911e-04  -3.3909489087418320e-04  -3.0537058528195128e-04  -2.5726117691946416e-04  7.7561577123808783e-05  9.1450253914124319e-05  -1.8650777633817911e-04  -8.3994252778807146e-05  -5.7727314602207049e-05  1.0456830463348043e-04  -1.0063450820263237e-04  6.6486190814678098e-06  6.4527038388260873e-05  -5.9958223883075684e-05  9.6152379121675662e-07  3.9611242411528029e-05  2.5227219625781721e-05  -1.1954746065409740e-04  2.4080236659694757e-05  2.6173677341611471e-05  7.1044904181179357e-05  5.3388255758798984e-05  -7.3413168207627389e-05  2.2502582312020688e-05  -1.3327792852280972e-04  -8.6795367113507465e-06  3.3524105138130366e-05  2.1564602557419127e-05  8.0012082412774910e-01  1.9132361123170214e+00  3.4813431571123883e+00  5.6338524657988449e+00  8.7234090295070743e+00  1.2653941447242971e+01  1.8833064736595404e+01  2.5158664051855073e+01  4.0408826732883320e+01  1.4644468391232886e+02  1.9681259401038432e+02  1.9688386279321580e+02  1.4620860777849839e+02  4.0029071577522643e+01  2.6411116550117882e+01  1.8607975117628950e+01  1.2894302154630285e+01  8.6463854815788359e+00  5.6484279451950217e+00  3.4725808874815227e+00  1.9158429217715593e+00  7.9935241797215839e-01  -4.5378670901713089e-03  -8.7910900071574618e-03  -8.3618496609925846e-03  -6.4194846339561918e-03  -3.4791274919034952e-03  -4.3344082574962965e-03  -2.2794696191044016e-04  -1.8467599909378133e-03  9.0901233070177067e-03  4.1537345869020352e-02  -4.1282364390877256e-02  -7.0735581987163065e-02  -8.9426683093962192e-02  -1.0764597058799753e-01  -1.0939721623122547e-01  -1.0121141946754932e-01  -8.1603122270869244e-02  -5.6118950795496315e-02  -2.7744183338417220e-02  2.6650481015196158e-03  3.1591674994057975e-02  5.8012995928692357e-02  7.9811833801095439e-02  9.5437766749998765e-02  1.0182012341419987e-01  9.6945748401490284e-02  8.3016788962906179e-02  5.7912862467758376e-02  3.9438987564584513e-02  6.2474003861064699e-03  2.7721471550264743e-03  1.3212724977531891e+00  3.1937748812864140e+00  5.8208989504784689e+00  9.5174298602762146e+00  1.4758137260476920e+01  2.2158121410719644e+01  3.2702089981201631e+01  4.7887877579982131e+01  6.9479765071915011e+01  1.3862381352395754e+00  3.3373264992671063e+00  6.0839012055569688e+00  9.9437748819921712e+00  1.5408106302765921e+01  2.3116908656761343e+01  3.4076594525286652e+01  4.9847522393690845e+01  7.2257507453590165e+01  1.4447163724268837e+00  3.4891268630895924e+00  6.3564661885065545e+00  1.0386830843741814e+01  1.6087445791393307e+01  2.4126740783642877e+01  3.5544852352065114e+01  5.1917675343295883e+01  7.5081061242285159e+01  1.5140601364036765e+00  3.6442749052845453e+00  6.6402386919518142e+00  1.0847189424026901e+01  1.6792669359018525e+01  2.5163307187027321e+01  3.7046509731407212e+01  5.4018225529734138e+01  7.8151631336697093e+01  1.5783954763524251e+00  3.8098098967975389e+00  6.9369947666877723e+00  1.1327839581475891e+01  1.7531601124156364e+01  2.6256597383541891e+01  3.8602323344699684e+01  5.6219516764923867e+01  8.1319592287016263e+01  1.6516473007462442e+00  3.9791116904519033e+00  7.2504455513294150e+00  1.1833287835479513e+01  1.8296805989019607e+01  2.7424020133285950e+01  4.0369249165698434e+01  5.8431687203616782e+01  8.4501477006027031e+01  1.7389890413676004e+00  4.1537196918173427e+00  7.5690057987156090e+00  1.2366543233846786e+01  1.9103965892205437e+01  2.8596829655355446e+01  4.2083082568292063e+01  6.0973747339504989e+01  8.7977720320285016e+01  1.8139590019931513e+00  4.3346406793712786e+00  7.9022029616268004e+00  1.2924596860653928e+01  1.9967388454045278e+01  2.9815795868614153e+01  4.3842588419006702e+01  6.3548047263075105e+01  9.1550339836798287e+01  1.9067925862779815e+00  4.5334505360013493e+00  8.2691276828680014e+00  1.3509349338537159e+01  2.0887322155154088e+01  3.1098375889896161e+01  4.5712682027744442e+01  6.6196545962245253e+01  9.5295060966176038e+01  1.9829392499575447e+00  4.7568510226191352e+00  8.6652869458177282e+00  1.4132739733806673e+01  2.1842071694733590e+01  3.2580619155887199e+01  4.7769439665843464e+01  6.8988569347040809e+01  9.9248337237208418e+01  2.0777822856198007e+00  4.9937830695367662e+00  9.0892101584821017e+00  1.4807530113923665e+01  2.2845082404266901e+01  3.4113970629928403e+01  4.9966690071729971e+01  7.1959846123801654e+01  1.0339990992452515e+02  2.1948421847377531e+00  5.2502907649469615e+00  9.5304842628223891e+00  1.5530673157902781e+01  2.3940812050714289e+01  3.5706662448291524e+01  5.2269770284922849e+01  7.5085989136537364e+01  1.0797457042017548e+02  2.2888632985462851e+00  5.5095693675831559e+00  1.0013653492776305e+01  1.6304250994848996e+01  2.5123854484415784e+01  3.7430352839341261e+01  5.4748661559284955e+01  7.8413364520491740e+01  1.1259552497864981e+02  2.3939458089788315e+00  5.7850913005753597e+00  1.0533621137658963e+01  1.7141712287469211e+01  2.6398136098246031e+01  3.9283271240535306e+01  5.7398479175943983e+01  8.2041443048142042e+01  1.1727605567970254e+02  2.5481694538909445e+00  6.1088137167968242e+00  1.1095572459417818e+01  1.8047399832572335e+01  2.7772429348298953e+01  4.1285086420693887e+01  6.0203796485290034e+01  8.5999937829248196e+01  1.2204879092702458e+02  2.6831355521678355e+00  6.4489043948278368e+00  1.1702739449116805e+01  1.9036249026469598e+01  2.9260214151392194e+01  4.3463537924909026e+01  6.3235804837191708e+01  9.0086216323042834e+01  1.2779099412861871e+02  2.8326695564897211e+00  6.8053740692027747e+00  1.2376657253989110e+01  2.0027893434531091e+01  3.0846558225540544e+01  4.5645436200534391e+01  6.6443276913524315e+01  9.4306352830695815e+01  1.3373216582337000e+02  3.0133010409080954e+00  7.2182363208103437e+00  1.3047579762616405e+01  2.1170721467146777e+01  3.2553927005636474e+01  4.8168299264679931e+01  6.9864723308598400e+01  9.8600811166553271e+01  1.3869111332630476e+02  3.1932122078758725e+00  7.6403364371536275e+00  1.3807396390898941e+01  2.2351170216942684e+01  3.4350292969112104e+01  5.0781186956979255e+01  7.3536859410267041e+01  1.0358656416652846e+02  1.4536721660107278e+02  3.3802414588137508e+00  8.0788748139789366e+00  1.4594360337757708e+01  2.3625259820928171e+01  3.6203792509824176e+01  5.3460277558579904e+01  7.7075150435514175e+01  1.0756370652872667e+02  1.5225359878866161e+02  3.5701022950303467e+00  8.5446250613141519e+00  1.5353989871135068e+01  2.4934171369705755e+01  3.8177475357212131e+01  5.6140409979300685e+01  8.1081053886377717e+01  1.1211396014492334e+02  1.5835359763605601e+02  3.7637203440200011e+00  9.0062859289281967e+00  1.6178939983306122e+01  2.6208728196554549e+01  4.0088336729614568e+01  5.8741658592691792e+01  8.4643276707540579e+01  1.1663152638042963e+02  1.6408357639246589e+02  3.9393396594467913e+00  9.4443955683186953e+00  1.6953073273383065e+01  2.7435626725197654e+01  4.1898925155723354e+01  6.1294504477295369e+01  8.7786279324569392e+01  1.2146493504032216e+02  1.6750294605231875e+02  4.1065521594050969e+00  9.8404427305437938e+00  1.7703307866806220e+01  2.8573900806852407e+01  4.3506552833340479e+01  6.3571185256957513e+01  9.0636856512176038e+01  1.2435502650399434e+02  1.7094530678141072e+02  4.2642853156585412e+00  1.0169314596239794e+01  1.8337184566484154e+01  2.9542326484630884e+01  4.4862202450840300e+01  6.5398930981543643e+01  9.3013253998853742e+01  1.2707126423528454e+02  1.7347633220119170e+02  4.3764947922714175e+00  1.0427095896672261e+01  1.8785623509370506e+01  3.0230086556846111e+01  4.5857562781337890e+01  6.6667534388982887e+01  9.4639081669930633e+01  1.2815918611078823e+02  1.7508215015006834e+02  4.4436331608567432e+00  1.0587372439195661e+01  1.9066333284414632e+01  3.0638360162909350e+01  4.6415529505172060e+01  6.7356758647216523e+01  9.5125126117033489e+01  1.2946566453880058e+02  1.7423740238045482e+02  4.4592496663766079e+00  1.0623561296206731e+01  1.9121404577048697e+01  3.0721873133831824e+01  4.6463454039045025e+01  6.7323569397431811e+01  9.5204365671070576e+01  1.2759368383448960e+02  1.7296506049362395e+02  4.4228095481125012e+00  1.0539108608854043e+01  1.8955578193022319e+01  3.0444807457763289e+01  4.5963603565044551e+01  6.6584878852570128e+01  9.3455726814809154e+01  1.2584803829825158e+02  1.6951107036920240e+02  4.3339829984621412e+00  1.0330623281024328e+01  1.8576594695833375e+01  2.9807123977676941e+01  4.5063774711843735e+01  6.5080258910934830e+01  9.1484603368491477e+01  1.2239663609908442e+02  1.6406842270463449e+02  4.1989133038582649e+00  1.0009526376716046e+01  1.8002610193413791e+01  2.8865539706289187e+01  4.3561452443682384e+01  6.3037421492070457e+01  8.8347537951849219e+01  1.1829554172141266e+02  1.5789603651162798e+02  4.0242786882836619e+00  9.5956191943769920e+00  1.7254378506349482e+01  2.7688553758428519e+01  4.1726689266633528e+01  6.0178284120302642e+01  8.4491602168394010e+01  1.1319434649308515e+02  1.5098432358072549e+02  3.8193844422887691e+00  9.1119156149353859e+00  1.6384292414702536e+01  2.6271382035610205e+01  3.9739771127658230e+01  5.7331791877515911e+01  8.0319735178362720e+01  1.0751788679854462e+02  1.4323265335010012e+02  3.5953116434782966e+00  8.5789475509941795e+00  1.5439010389423578e+01  2.4739935311733756e+01  3.7368544669323207e+01  5.4106837396989889e+01  7.5731099038554788e+01  1.0155558433737039e+02  1.3522849752902655e+02  3.3621103361963778e+00  8.0239700354752248e+00  1.4440653271454643e+01  2.3184211286619288e+01  3.4946006864290752e+01  5.0457833133484918e+01  7.0929759095156896e+01  9.5307094819109366e+01  1.2752558483032657e+02  3.1267694607695176e+00  7.4677552154737521e+00  1.3438266770843960e+01  2.1571536953312002e+01  3.2676945653830920e+01  4.7251132695041761e+01  6.6308157685325938e+01  8.9232458043671528e+01  1.1876994891933286e+02  2.8979591574552330e+00  6.9234879416154236e+00  1.2473329980521871e+01  2.0007568884006705e+01  3.0291292182372576e+01  4.3984852881658973e+01  6.1709688067505184e+01  8.3395571453668808e+01  1.1151523880154511e+02  2.6825030864297443e+00  6.4064907791063783e+00  1.1544508530571155e+01  1.8563302926066005e+01  2.8028482114768561e+01  4.0616711260158652e+01  5.7312949967290486e+01  7.7514883953627361e+01  1.0504018594818849e+02  2.4746953995517944e+00  5.9271882600979033e+00  1.0672711331988765e+01  1.7163326257552349e+01  2.6073212535745483e+01  3.7815426397692072e+01  5.3396810997600753e+01  7.2143444186675495e+01  9.7902998181776468e+01  2.2967869950004878e+00  5.4728736550884882e+00  9.9163757072189451e+00  1.5897533014571096e+01  2.4113184133382692e+01  3.5149746102978369e+01  4.9635035315077388e+01  6.7386389618635192e+01  9.1488764158524134e+01  2.1392051627853279e+00  5.0779766308321133e+00  9.2367345838428694e+00  1.4799274899600276e+01  2.2348202830372891e+01  3.2514668947222347e+01  4.6166230441700492e+01  6.2971283347364377e+01  8.5694303442315402e+01  1.9703201725439139e+00  4.7528892468867285e+00  8.5644058375733607e+00  1.3729638938811902e+01  2.0836021185606079e+01  3.0334200076377300e+01  4.3095114812539926e+01  5.8971011621366131e+01  8.0451141318289658e+01  1.8471317226182120e+00  4.4164696618612860e+00  7.9361765664208255e+00  1.2785724062096524e+01  1.9434884487706331e+01  2.8346926037899511e+