<?xml version="1.0"?>
<VTKFile type="UnstructuredGrid"  version="0.1"  >
<UnstructuredGrid>
<Piece  NumberOfPoints="6649" NumberOfCells="12859">
<Points>
<DataArray  type="Float64"  NumberOfComponents="3"  format="ascii">0 0 0  0.75 0 0  0.85 0 0  1.8 0 0  1.8 0.1 0  0 0.1 0  0.0197667577360765 0 0  0.03953351547215212 0 0  0.05930027320823922 0 0  0.07906703094433311 0 0  0.09883378868041724 0 0  0.1186005464164749 0 0  0.1383673041525551 0 0  0.158134061888649 0 0  0.1779008196247429 0 0  0.1976675773608367 0 0  0.2174343350969306 0 0  0.2372010928330244 0 0  0.2569678505691183 0 0  0.2767346083052122 0 0  0.296501366041306 0 0  0.3162681237773999 0 0  0.3360348815134938 0 0  0.3558016392495876 0 0  0.3755683969856956 0 0  0.3953351547219259 0 0  0.415101912458166 0 0  0.4348686701944061 0 0  0.4546354279306462 0 0  0.4744021856668862 0 0  0.4941689434031263 0 0  0.5132321578495721 0 0  0.5297803041756365 0 0  0.5440483641191814 0 0  0.5563504982721431 0 0  0.5669575821633017 0 0  0.5761031680953438 0 0  0.5839886295292807 0 0  0.5907875923391745 0 0  0.5966497596361832 0 0  0.6017493169781984 0 0  0.6066910064122585 0 0  0.6116326958463185 0 0  0.6165743852803786 0 0  0.6215160747144387 0 0  0.6264577641484987 0 0  0.6313994535825588 0 0  0.6363411430166188 0 0  0.6412828324506789 0 0  0.646224521884739 0 0  0.6511662113187989 0 0  0.6561079007528591 0 0  0.6610495901869191 0 0  0.6659912796209791 0 0  0.6709329690550392 0 0  0.6758746584890992 0 0  0.6808163479231593 0 0  0.6857580373572194 0 0  0.6906997267912793 0 0  0.6956414162253395 0 0  0.7005831056593994 0 0  0.7055247950934596 0 0  0.7104664845275196 0 0  0.7154081739615796 0 0  0.7203498633956397 0 0  0.7252915528296997 0 0  0.7302332422637597 0 0  0.7351749316978198 0 0  0.7401166211318799 0 0  0.74505831056594 0 0  0.8549639029829768 0 0  0.8599278059659535 0 0  0.8648917089489304 0 0  0.8698556119319072 0 0  0.874819514914884 0 0  0.8797834178978607 0 0  0.8847473208808376 0 0  0.8897112238638144 0 0  0.8946751268467912 0 0  0.899639029829768 0 0  0.9046029328127448 0 0  0.9095668357957216 0 0  0.9145307387786984 0 0  0.9194946417616752 0 0  0.9244585447446521 0 0  0.9294224477276288 0 0  0.9343863507106056 0 0  0.9393502536935824 0 0  0.9443141566765593 0 0  0.949278059659536 0 0  0.9542419626425128 0 0  0.9592058656254896 0 0  0.9641697686084665 0 0  0.9691336715914421 0 0  0.9740975745744045 0 0  0.9790614775573583 0 0  0.9840253805403074 0 0  0.9889892835232696 0 0  0.9939531865062405 0 0  0.9989170894892173 0 0  1.003880992472194 0 0  1.008844895455171 0 0  1.013808798438148 0 0  1.018772701421125 0 0  1.023736604404101 0 0  1.028700507387078 0 0  1.033664410370055 0 0  1.038628313353032 0 0  1.043592216336009 0 0  1.048556119318985 0 0  1.053520022301962 0 0  1.058483925284939 0 0  1.063447828267916 0 0  1.068411731250893 0 0  1.073375634233869 0 0  1.078339537216846 0 0  1.083303440199823 0 0  1.0882673431828 0 0  1.093231246165776 0 0  1.098195149148753 0 0  1.10315905213173 0 0  1.108122955114707 0 0  1.113086858097684 0 0  1.11805076108066 0 0  1.123014664063637 0 0  1.127978567046614 0 0  1.132942470029591 0 0  1.137906373012568 0 0  1.142870275995544 0 0  1.147834178978521 0 0  1.152798081961498 0 0  1.157761984944475 0 0  1.162725887927452 0 0  1.167689790910428 0 0  1.172653693893405 0 0  1.177617596876382 0 0  1.182581499859359 0 0  1.187545402842336 0 0  1.192509305825312 0 0  1.197473208808289 0 0  1.202528416558545 0 0  1.208286980028268 0 0  1.214970234825317 0 0  1.222726666214885 0 0  1.231728598035476 0 0  1.242176031676204 0 0  1.254301080864354 0 0  1.268373130368153 0 0  1.284704824362368 0 0  1.303609701700496 0 0  1.323465313632403 0 0  1.343320925564331 0 0  1.363176537496441 0 0  1.383032149428385 0 0  1.402887761360444 0 0  1.422743373292381 0 0  1.442598985224447 0 0  1.462454597156384 0 0  1.482310209088442 0 0  1.502165821020387 0 0  1.52202143295243 0 0  1.5418770448844 0 0  1.561732656816418 0 0  1.58158826874835 0 0  1.601443880680319 0 0  1.621299492612267 0 0  1.641155104544221 0 0  1.661010716476183 0 0  1.680866328408122 0 0  1.7007219403401 0 0  1.720577552272023 0 0  1.740433164204017 0 0  1.760288776135996 0 0  1.780144388068006 0 0  1.8 0.0001 0  1.8 0.00024 0  1.8 0.000436 0  1.8 0.0007103999999999999 0  1.8 0.00109456 0  1.8 0.001632384 0  1.8 0.0023853376 0  1.8 0.003439472639999999 0  1.8 0.004915261695999998 0  1.8 0.02294915701755847 0  1.8 0.04098305233910775 0  1.8 0.05901694766070642 0  1.8 0.07705084298235496 0  1.8 0.09508473830400001 0  1.8 0.09656052736000001 0  1.8 0.09761466240000001 0  1.8 0.098367616 0  1.8 0.09890544000000001 0  1.8 0.09928960000000001 0  1.8 0.099564 0  1.8 0.09976 0  1.8 0.0999 0  1.780054611080893 0.1 0  1.760109222161742 0.1 0  1.740163833242603 0.1 0  1.720218444323514 0.1 0  1.700273055404377 0.1 0  1.680327666485227 0.1 0  1.660382277566116 0.1 0  1.640436888647012 0.1 0  1.620491499727862 0.1 0  1.600546110808719 0.1 0  1.58060072188963 0.1 0  1.560655332970497 0.1 0  1.540709944051346 0.1 0  1.520764555132233 0.1 0  1.500819166213187 0.1 0  1.480873777294068 0.1 0  1.460928388374922 0.1 0  1.440982999455856 0.1 0  1.421037610536787 0.1 0  1.401092221617639 0.1 0  1.381146832698522 0.1 0  1.361201443779477 0.1 0  1.341256054860361 0.1 0  1.32131066594121 0.1 0  1.301365277022092 0.1 0  1.282656370697047 0.1 0  1.266540829382826 0.1 0  1.252664371060761 0.1 0  1.240715900130383 0.1 0  1.230427543971492 0.1 0  1.22156864397028 0.1 0  1.213940595522496 0.1 0  1.207372383276256 0.1 0  1.201716755059164 0.1 0  1.19668766017256 0.1 0  1.191701312942788 0.1 0  1.186714965713021 0.1 0  1.181728618483264 0.1 0  1.176742271253507 0.1 0  1.17175592402375 0.1 0  1.166769576793993 0.1 0  1.161783229564236 0.1 0  1.156796882334479 0.1 0  1.151810535104719 0.1 0  1.146824187874946 0.1 0  1.141837840645174 0.1 0  1.136851493415395 0.1 0  1.131865146185607 0.1 0  1.12687879895582 0.1 0  1.121892451726041 0.1 0  1.116906104496269 0.1 0  1.111919757266497 0.1 0  1.106933410036737 0.1 0  1.10194706280698 0.1 0  1.096960715577223 0.1 0  1.091974368347466 0.1 0  1.08698802111771 0.1 0  1.08200167388795 0.1 0  1.077015326658178 0.1 0  1.072028979428405 0.1 0  1.067042632198628 0.1 0  1.06205628496884 0.1 0  1.057069937739053 0.1 0  1.052083590509273 0.1 0  1.047097243279501 0.1 0  1.042110896049729 0.1 0  1.037124548819967 0.1 0  1.03213820159021 0.1 0  1.027151854360453 0.1 0  1.022165507130696 0.1 0  1.01717915990094 0.1 0  1.012192812671182 0.1 0  1.007206465441417 0.1 0  1.002220118211653 0.1 0  0.9972337709818865 0.1 0  0.9922474237521142 0.1 0  0.987261076522342 0.1 0  0.9822747292925696 0.1 0  0.9772883820627973 0.1 0  0.9723020348330251 0.1 0  0.9673156876032528 0.1 0  0.9623293403734806 0.1 0  0.9573429931437083 0.1 0  0.952356645913936 0.1 0  0.9473702986841638 0.1 0  0.9423839514543916 0.1 0  0.9373976042246193 0.1 0  0.9324112569948469 0.1 0  0.9274249097650747 0.1 0  0.9224385625353024 0.1 0  0.9174522153055302 0.1 0  0.9124658680757579 0.1 0  0.9074795208459857 0.1 0  0.9024931736162134 0.1 0  0.8975068263864333 0.1 0  0.8925204791566458 0.1 0  0.8875341319268581 0.1 0  0.8825477846970601 0.1 0  0.8775614374672571 0.1 0  0.8725750902374539 0.1 0  0.8675887430076509 0.1 0  0.8626023957778479 0.1 0  0.857616048548045 0.1 0  0.8526297013182419 0.1 0  0.8476433540884389 0.1 0  0.8426570068586375 0.1 0  0.8376706596288421 0.1 0  0.8326843123990469 0.1 0  0.8276979651692515 0.1 0  0.8227116179394561 0.1 0  0.8177252707096607 0.1 0  0.8127389234798611 0.1 0  0.8077525762500579 0.1 0  0.8027662290202549 0.1 0  0.7977798817904576 0.1 0  0.7927935345606625 0.1 0  0.787807187330867 0.1 0  0.7828208401010643 0.1 0  0.7778344928712615 0.1 0  0.7728481456414584 0.1 0  0.7678617984116554 0.1 0  0.7628754511818525 0.1 0  0.7578891039520492 0.1 0  0.7529027567222462 0.1 0  0.7479164094924433 0.1 0  0.7429300622626402 0.1 0  0.7379437150328372 0.1 0  0.7329573678030343 0.1 0  0.7279710205732413 0.1 0  0.7229846733434535 0.1 0  0.717998326113666 0.1 0  0.7130119788838654 0.1 0  0.7080256316540623 0.1 0  0.7030392844242594 0.1 0  0.6980529371944564 0.1 0  0.6930665899646533 0.1 0  0.6880802427348505 0.1 0  0.6830938955050474 0.1 0  0.6781075482752443 0.1 0  0.6731212010454415 0.1 0  0.6681348538156384 0.1 0  0.6631485065858354 0.1 0  0.6581621593560409 0.1 0  0.6531758121262534 0.1 0  0.6481894648964657 0.1 0  0.6432031176666668 0.1 0  0.6382167704368638 0.1 0  0.6332304232070607 0.1 0  0.6282440759772578 0.1 0  0.6232577287474548 0.1 0  0.618271381517653 0.1 0  0.6132850342878655 0.1 0  0.6082986870580673 0.1 0  0.603312339828264 0.1 0  0.5982832449416711 0.1 0  0.5926276167246765 0.1 0  0.586059404478541 0.1 0  0.5784313560308749 0.1 0  0.5695724560297908 0.1 0  0.5592840998710413 0.1 0  0.5473356289408138 0.1 0  0.5334591706189113 0.1 0  0.5173436293048621 0.1 0  0.4986347229799815 0.1 0  0.478689334060789 0.1 0  0.4587439451415785 0.1 0  0.4387985562224006 0.1 0  0.418853167303197 0.1 0  0.3989077783839854 0.1 0  0.3789623894647756 0.1 0  0.3590170005456041 0.1 0  0.3390716116263919 0.1 0  0.3191262227071796 0.1 0  0.2991808337879986 0.1 0  0.2792354448687984 0.1 0  0.2592900559495861 0.1 0  0.2393446670303738 0.1 0  0.2193992781112049 0.1 0  0.1994538891919926 0.1 0  0.1795085002727801 0.1 0  0.159563111353596 0.1 0  0.1396177224343995 0.1 0  0.119672333515187 0.1 0  0.09972694459597498 0.1 0  0.07978155567680578 0.1 0  0.05983616675759373 0.1 0  0.03989077783838124 0.1 0  0.01994538891919428 0.1 0  0 0.0999 0  0 0.09976 0  0 0.099564 0  0 0.09928960000000001 0  0 0.09890544000000001 0  0 0.098367616 0  0 0.09761466240000001 0  0 0.09656052736000001 0  0 0.09508473830400001 0  0 0.07705084298244591 0  0 0.05901694766089675 0  0 0.04098305233930213 0  0 0.02294915701764492 0  0 0.004915261695999998 0  0 0.003439472639999999 0  0 0.0023853376 0  0 0.001632384 0  0 0.00109456 0  0 0.0007103999999999999 0  0 0.000436 0  0 0.00024 0  0 0.0001 0  0.8497592363325269 0.004900857027472395 0
[...]
<PointData  Vectors="f_6"> 
<DataArray  type="Float64"  Name="f_6"  NumberOfComponents="3" format="ascii">0.0000000000000000e+00 0.0000000000000000e+00 0.0000000000000000e+00  0.0000000000000000e+00 0.0000000000000000e+00 0.0000000000000000e+00  0.0000000000000000e+00 0.0000000000000000e+00 0.0000000000000000e+00  0.0000000000000000e+00 0.0000000000000000e+00 0.0000000000000000e+00  0.0000000000000000e+00 0.0000000000000000e+00 0.0000000000000000e+00  0.0000000000000000e+00 0.0000000000000000e+00 0.0000000000000000e+00  0.0000000000000000e+00 0.0000000000000000e+00 0.0000000000000000e+00  0.0000000000000000e+00 0.0000000000000000e+00 0.0000000000000000e+00  0.0000000000000000e+00 0.0000000000000000e+00 0.0000000000000000e+00  0.0000000000000000e+00 0.0000000000000000e+00 0.0000000000000000e+00  0.0000000000000000e+00 0.0000000000000000e+00 0.0000000000000000e+00  0.0000000000000000e+00 0.0000000000000000e+00 0.0000000000000000e+00  0.0000000000000000e+00 0.0000000000000000e+00 0.0000000000000000e+00  0.0000000000000000e+00 0.0000000000000000e+00 0.0000000000000000e+00  0.0000000000000000e+00 0.0000000000000000e+00 0.0000000000000000e+00  0.0000000000000000e+00 0.0000000000000000e+00 0.0000000000000000e+00  0.0000000000000000e+00 0.0000000000000000e+00 0.0000000000000000e+00  0.0000000000000000e+00 0.0000000000000000e+00 0.0000000000000000e+00  0.0000000000000000e+00 0.0000000000000000e+00 0.0000000000000000e+00  0.0000000000000000e+00 0.0000000000000000e+00 0.0000000000000000e+00  0.0000000000000000e+00 0.0000000000000000e+00 0.0000000000000000e+00  0.0000000000000000e+00 0.0000000000000000e+00 0.0000000000000000e+00  0.0000000000000000e+00 0.0000000000000000e+00 0.0000000000000000e+00  0.0000000000000000e+00 0.0000000000000000e+00 0.0000000000000000e+00  0.0000000000000000e+00 0.0000000000000000e+00 0.0000000000000000e+00  0.0000000000000000e+00 0.0000000000000000e+00 0.0000000000000000e+00  0.0000000000000000e+00 0.0000000000000000e+00 0.0000000000000000e+00  0.0000000000000000e+00 0.0000000000000000e+00 0.0000000000000000e+00  0.0000000000000000e+00 0.0000000000000000e+00 0.0000000000000000e+00  0.0000000000000000e+00 0.0000000000000000e+00 0.0000000000000000e+00  0.0000000000000000e+00 0.0000000000000000e+00 0.0000000000000000e+00  0.0000000000000000e+00 0.0000000000000000e+00 0.0000000000000000e+00  0.0000000000000000e+00 0.0000000000000000e+00 0.0000000000000000e+00  0.0000000000000000e+00 0.0000000000000000e+00 0.0000000000000000e+00  0.0000000000000000e+00 0.0000000000000000e+00 0.0000000000000000e+00  0.0000000000000000e+00 0.0000000000000000e+00 0.0000000000000000e+00  0.0000000000000000e+00 0.0000000000000000e+00 0.0000000000000000e+00  0.0000000000000000e+00 0.0000000000000000e+00 0.0000000000000000e+00  0.0000000000000000e+00 0.0000000000000000e+00 0.0000000000000000e+00  0.0000000000000000e+00 0.0000000000000000e+00 0.0000000000000000e+00  0.0000000000000000e+00 0.0000000000000000e+00 0.0000000000000000e+00  0.0000000000000000e+00 0.0000000000000000e+00 0.0000000000000000e+00  0.0000000000000000e+00 0.0000000000000000e+00 0.0000000000000000e+00  0.0000000000000000e+00 0.0000000000000000e+00 0.0000000000000000e+00  0.0000000000000000e+00 0.0000000000000000e+00 0.0000000000000000e+00  0.0000000000000000e+00 0.0000000000000000e+00 0.0000000000000000e+00  0.0000000000000000e+00 0.0000000000000000e+00 0.0000000000000000e+00  0.0000000000000000e+00 0.0000000000000000e+00 0.0000000000000000e+00  0.0000000000000000e+00 0.0000000000000000e+00 0.0000000000000000e+00  0.0000000000000000e+00 0.0000000000000000e+00 0.0000000000000000e+00  0.0000000000000000e+00 0.0000000000000000e+00 0.0000000000000000e+00  0.0000000000000000e+00 0.0000000000000000e+00 0.0000000000000000e+00  0.0000000000000000e+00 0.0000000000000000e+00 0.0000000000000000e+00  0.0000000000000000e+00 0.0000000000000000e+00 0.0000000000000000e+00  0.0000000000000000e+00 0.0000000000000000e+00 0.0000000000000000e+00  0.0000000000000000e+00 0.0000000000000000e+00 0.0000000000000000e+00  0.0000000000000000e+00 0.0000000000000000e+00 0.0000000000000000e+00  0.0000000000000000e+00 0.0000000000000000e+00 0.0000000000000000e+00  0.0000000000000000e+00 0.0000000000000000e+00 0.0000000000000000e+00  0.0000000000000000e+00 0.0000000000000000e+00 0.0000000000000000e+00  0.0000000000000000e+00 0.0000000000000000e+00 0.0000000000000000e+00  0.0000000000000000e+00 0.0000000000000000e+00 0.0000000000000000e+00  0.0000000000000000e+00 0.0000000000000000e+00 0.0000000000000000e+00  0.0000000000000000e+00 0.0000000000000000e+00 0.0000000000000000e+00  0.0000000000000000e+00 0.0000000000000000e+00 0.0000000000000000e+00  0.0000000000000000e+00 0.0000000000000000e+00 0.0000000000000000e+00  0.0000000000000000e+00 0.0000000000000000e+00 0.0000000000000000e+00  0.0000000000000000e+00 0.0000000000000000e+00 0.0000000000000000e+00  0.0000000000000000e+00 0.0000000000000000e+00 0.0000000000000000e+00  0.0000000000000000e+00 0.0000000000000000e+00 0.0000000000000000e+00  0.0000000000000000e+00 0.0000000000000000e+00 0.0000000000000000e+00  0.0000000000000000e+00 0.0000000000000000e+00 0.0000000000000000e+00  0.0000000000000000e+00 0.0000000000000000e+00 0.0000000000000000e+00  0.0000000000000000e+00 0.0000000000000000e+00 0.0000000000000000e+00  0.0000000000000000e+00 0.0000000000000000e+00 0.0000000000000000e+00  0.0000000000000000e+00 0.0000000000000000e+00 0.0000000000000000e+00  0.0000000000000000e+00 0.0000000000000000e+00 0.0000000000000000e+00  0.0000000000000000e+00 0.0000000000000000e+00 0.0000000000000000e+00  0.0000000000000000e+00 0.0000000000000000e+00 0.0000000000000000e+00  0.0000000000000000e+00 0.0000000000000000e+00 0.0000000000000000e+00  0.0000000000000000e+00 0.0000000000000000e+00 0.0000000000000000e+00  0.0000000000000000e+00 0.0000000000000000e+00 0.0000000000000000e+00  0.0000000000000000e+00 0.0000000000000000e+00 0.0000000000000000e+00  0.0000000000000000e+00 0.0000000000000000e+00 0.0000000000000000e+00  0.0000000000000000e+00 0.0000000000000000e+00 0.0000000000000000e+00  0.0000000000000000e+00 0.0000000000000000e+00 0.0000000000000000e+00  0.0000000000000000e+00 0.0000000000000000e+00 0.0000000000000000e+00  0.0000000000000000e+00 0.0000000000000000e+00 0.0000000000000000e+00  0.0000000000000000e+00 0.0000000000000000e+00 0.0000000000000000e+00  0.0000000000000000e+00 0.0000000000000000e+00 0.0000000000000000e+00  0.0000000000000000e+00 0.0000000000000000e+00 0.0000000000000000e+00  0.0000000000000000e+00 0.0000000000000000e+00 0.0000000000000000e+00  0.0000000000000000e+00 0.0000000000000000e+00 0.0000000000000000e+00  0.0000000000000000e+00 0.0000000000000000e+00 0.0000000000000000e+00  0.0000000000000000e+00 0.0000000000000000e+00 0.0000000000000000e+00  0.0000000000000000e+00 0.0000000000000000e+00 0.0000000000000000e+00  0.0000000000000000e+00 0.0000000000000000e+00 0.0000000000000000e+00  0.0000000000000000e+00 0.0000000000000000e+00 0.0000000000000000e+00  0.0000000000000000e+00 0.0000000000000000e+00 0.0000000000000000e+00  0.0000000000000000e+00 0.0000000000000000e+00 0.0000000000000000e+00  0.0000000000000000e+00 0.0000000000000000e+00 0.0000000000000000e+00  0.0000000000000000e+00 0.0000000000000000e+00 0.0000000000000000e+00  0.0000000000000000e+00 0.0000000000000000e+00 0.0000000000000000e+00  0.0000000000000000e+00 0.0000000000000000e+00 0.0000000000000000e+00  0.0000000000000000e+00 0.0000000000000000e+00 0.0000000000000000e+00  0.0000000000000000e+00 0.0000000000000000e+00 0.0000000000000000e+00  0.0000000000000000e+00 0.0000000000000000e+00 0.0000000000000000e+00  0.0000000000000000e+00 0.0000000000000000e+00 0.0000000000000000e+00  0.0000000000000000e+00 0.0000000000000000e+00 0.0000000000000000e+00  0.0000000000000000e+00 0.0000000000000000e+00 0.0000000000000000e+00  0.0000000000000000e+00 0.0000000000000000e+00 0.0000000000000000e+00  0.0000000000000000e+00 0.0000000000000000e+00 0.0000000000000000e+00  0.0000000000000000e+00 0.0000000000000000e+00 0.0000000000000000e+00  0.0000000000000000e+00 0.0000000000000000e+00 0.0000000000000000e+00  0.0000000000000000e+00 0.0000000000000000e+00 0.0000000000000000e+00  0.0000000000000000e+00 0.0000000000000000e+00 0.0000000000000000e+00  0.0000000000000000e+00 0.0000000000000000e+00 0.0000000000000000e+00  0.0000000000000000e+00 0.0000000000000000e+00 0.0000000000000000e+00  0.0000000000000000e+00 0.0000000000000000e+00 0.0000000000000000e+00  0.0000000000000000e+00 0.0000000000000000e+00 0.0000000000000000e+00  0.0000000000000000e+00 0.0000000000000000e+00 0.0000000000000000e+00  0.0000000000000000e+00 0.0000000000000000e+00 0.0000000000000000e+00  0.0000000000000000e+00 0.0000000000000000e+00 0.0000000000000000e+00  0.0000000000000000e+00 0.0000000000000000e+00 0.0000000000000000e+00  0.0000000000000000e+00 0.0000000000000000e+00 0.0000000000000000e+00  0.0000000000000000e+00 0.0000000000000000e+00 0.0000000000000000e+00  0.0000000000000000e+00 0.0000000000000000e+00 0.0000000000000000e+00  0.0000000000000000e+00 0.0000000000000000e+00 0.0000000000000000e+00  0.0000000000000000e+00 0.0000000000000000e+00 0.0000000000000000e+00  0.0000000000000000e+00 0.0000000000000000e+00 0.0000000000000000e+00  0.0000000000000000e+00 0.0000000000000000e+00 0.0000000000000000e+00  0.0000000000000000e+00 0.0000000000000000e+00 0.0000000000000000e+00  0.0000000000000000e+00 0.0000000000000000e+00 0.0000000000000000e+00  0.0000000000000000e+00 0.0000000000000000e+00 0.0000000000000000e+00  0.0000000000000000e+00 0.0000000000000000e+00 0.0000000000000000e+00  0.0000000000000000e+00 0.0000000000000000e+00 0.0000000000000000e+00  0.0000000000000000e+00 0.0000000000000000e+00 0.0000000000000000e+00  0.0000000000000000e+00 0.0000000000000000e+00 0.0000000000000000e+00  0.0000000000000000e+00 0.0000000000000000e+00 0.0000000000000000e+00  0.0000000000000000e+00 0.0000000000000000e+00 0.0000000000000000e+00  0.0000000000000000e+00 0.0000000000000000e+00 0.0000000000000000e+00  0.0000000000000000e+00 0.0000000000000000e+00 0.0000000000000000e+00  0.0000000000000000e+00 0.0000000000000000e+00 0.0000000000000000e+00  0.0000000000000000e+00 0.0000000000000000e+00 0.0000000000000000e+00  0.0000000000000000e+00 0.0000000000000000e+00 0.0000000000000000e+00  0.0000000000000000e+00 0.0000000000000000e+00 0.0000000000000000e+00  0.0000000000000000e+00 0.0000000000000000e+00 0.0000000000000000e+00  0.0000000000000000e+00 0.0000000000000000e+00 0.0000000000000000e+00  0.0000000000000000e+00 0.0000000000000000e+00 0.0000000000000000e+00  0.0000000000000000e+00 0.0000000000000000e+00 0.0000000000000000e+00  0.0000000000000000e+00 0.0000000000000000e+00 0.0000000000000000e+00  0.0000000000000000e+00 0.0000000000000000e+00 0.0000000000000000e+00  0.0000000000000000e+00 0.0000000000000000e+00 0.0000000000000000e+00  0.0000000000000000e+00 0.0000000000000000e+00 0.0000000000000000e+00  0.0000000000000000e+00 0.0000000000000000e+00 0.0000000000000000e+00  0.0000000000000000e+00 0.0000000000000000e+00 0.0000000000000000e+00  0.0000000000000000e+00 0.0000000000000000e+00 0.0000000000000000e+00  0.0000000000000000e+00 0.0000000000000000e+00 0.0000000000000000e+00  0.0000000000000000e+00 0.0000000000000000e+00 0.0000000000000000e+00  0.0000000000000000e+00 0.0000000000000000e+00 0.0000000000000000e+00  0.0000000000000000e+00 0.0000000000000000e+00 0.0000000000000000e+00  0.0000000000000000e+00 0.0000000000000000e+00 0.0000000000000000e+00  0.0000000000000000e+00 0.0000000000000000e+00 0.0000000000000000e+00  0.0000000000000000e+00 0.0000000000000000e+00 0.0000000000000000e+00  0.0000000000000000e+00 0.0000000000000000e+00 0.0000000000000000e+00  0.0000000000000000e+00 0.0000000000000000e+00 0.0000000000000000e+00  0.0000000000000000e+00 0.0000000000000000e+00 0.0000000000000000e+00  0.0000000000000000e+00 0.0000000000000000e+00 0.0000000000000000e+00  0.0000000000000000e+00 0.0000000000000000e+00 0.0000000000000000e+00  0.0000000000000000e+00 0.0000000000000000e+00 0.0000000000000000e+00  0.0000000000000000e+00 0.0000000000000000e+00 0.0000000000000000e+00  0.0000000000000000e+00 0.0000000000000000e+00 0.0000000000000000e+00  0.0000000000000000e+00 0.0000000000000000e+00 0.0000000000000000e+00  0.0000000000000000e+00 0.0000000000000000e+00 0.0000000000000000e+00  7.5223673243987902e-03 -4.8555950854942149e-03 0.0000000000000000e+00  1.8171296170749411e-02 -1.1464224814147652e-02 0.0000000000000000e+00  3.3288807509998977e-02 -2.0345229728835523e-02 0.0000000000000000e+00  5.4806000424032809e-02 -3.2053543013767956e-02 0.0000000000000000e+00  8.5474771352168466e-02 -4.7040536169472284e-02 0.0000000000000000e+00  1.2911669638851664e-01 -6.5350581692012619e-02 0.0000000000000000e+00  1.9077114195858635e-01 -8.6085559114477461e-02 0.0000000000000000e+00  2.7653619490693759e-01 -1.0675148765692995e-01 0.0000000000000000e+00  3.9318652879774446e-01 -1.2330335465441000e-01 0.0000000000000000e+00  1.4126893809591532e+00 -2.8461706355853374e-02 0.0000000000000000e+00  1.9462629348636942e+00 -6.2336466426995366e-03 0.0000000000000000e+00  1.9431673519139452e+00 7.0008648200260261e-03 0.0000000000000000e+00  1.4080378990713498e+00 2.7750541961805125e-02 0.0000000000000000e+00  3.9233659370179630e-01 1.2283529276737744e-01 0.0000000000000000e+00  2.7558616876120134e-01 1.0619367325559909e-01 0.0000000000000000e+00  1.9065766643613938e-01 8.5979396127948485e-02 0.0000000000000000e+00  1.2938872326554576e-01 6.5370406004000250e-02 0.0000000000000000e+00  8.5883355294379876e-02 4.7086693374616004e-02 0.0000000000000000e+00  5.5223779892403319e-02 3.2097123750125245e-02 0.0000000000000000e+00  3.3467929405507274e-02 2.0365928177442948e-02 0.0000000000000000e+00  1.8290423696706890e-02 1.1476331123129914e-02 0.0000000000000000e+00  7.5784200721910151e-03 4.8608040328625337e-03 0.0000000000000000e+00  0.0000000000000000e+00 0.0000000000000000e+00 0.0000000000000000e+00  0.0000000000000000e+00 0.0000000000000000e+00 0.0000000000000000e+00  0.0000000000000000e+00 0.0000000000000000e+00 0.0000000000000000e+00  0.0000000000000000e+00 0.0000000000000000e+00 0.0000000000000000e+00  0.0000000000000000e+00 0.0000000000000000e+00 0.0000000000000000e+00  0.0000000000000000e+00 0.0000000000000000e+00 0.0000000000000000e+00  0.0000000000000000e+00 0.0000000000000000e+00 0.0000000000000000e+00  0.0000000000000000e+00 0.0000000000000000e+00 0.0000000000000000e+00  0.0000000000000000e+00 0.0000000000000000e+00 0.0000000000000000e+00  0.0000000000000000e+00 0.0000000000000000e+00 0.0000000000000000e+00  0.0000000000000000e+00 0.0000000000000000e+00 0.0000000000000000e+00  0.0000000000000000e+00 0.0000000000000000e+00 0.0000000000000000e+00  0.0000000000000000e+00 0.0000000000000000e+00 0.0000000000000000e+00  0.0000000000000000e+00 0.0000000000000000e+00 0.0000000000000000e+00  0.0000000000000000e+00 0.0000000000000000e+00 0.0000000000000000e+00  0.0000000000000000e+00 0.0000000000000000e+00 0.0000000000000000e+00  0.0000000000000000e+00 0.0000000000000000e+00 0.0000000000000000e+00  0.0000000000000000e+00 0.0000000000000000e+00 0.0000000000000000e+00  0.0000000000000000e+00 0.0000000000000000e+00 0.0000000000000000e+00  0.0000000000000000e+00 0.0000000000000000e+00 0.0000000000000000e+00  0.0000000000000000e+00 0.0000000000000000e+00 0.0000000000000000e+00  0.0000000000000000e+00 0.0000000000000000e+00 0.0000000000000000e+00  0.0000000000000000e+00 0.0000000000000000e+00 0.0000000000000000e+00  0.0000000000000000e+00 0.0000000000000000e+00 0.0000000000000000e+00  0.0000000000000000e+00 0.0000000000000000e+00 0.0000000000000000e+00  0.0000000000000000e+00 0.0000000000000000e+00 0.0000000000000000e+00  0.0000000000000000e+00 0.0000000000000000e+00 0.0000000000000000e+00  0.0000000000000000e+00 0.0000000000000000e+00 0.0000000000000000e+00  0.0000000000000000e+00 0.0000000000000000e+00 0.0000000000000000e+00  0.0000000000000000e+00 0.0000000000000000e+00 0.0000000000000000e+00  0.0000000000000000e+00 0.0000000000000000e+00 0.0000000000000000e+00  0.0000000000000000e+00 0.0000000000000000e+00 0.0000000000000000e+00  0.0000000000000000e+00 0.0000000000000000e+00 0.0000000000000000e+00  0.0000000000000000e+00 0.0000000000000000e+00 0.0000000000000000e+00  0.0000000000000000e+00 0.0000000000000000e+00 0.0000000000000000e+00  0.0000000000000000e+00 0.0000000000000000e+00 0.0000000000000000e+00  0.0000000000000000e+00 0.0000000000000000e+00 0.0000000000000000e+00  0.0000000000000000e+00 0.0000000000000000e+00 0.0000000000000000e+00  0.0000000000000000e+00 0.0000000000000000e+00 0.0000000000000000e+00  0.0000000000000000e+00 0.0000000000000000e+00 0.0000000000000000e+00  0.0000000000000000e+00 0.0000000000000000e+00 0.0000000000000000e+00  0.0000000000000000e+00 0.0000000000000000e+00 0.0000000000000000e+00  0.0000000000000000e+00 0.0000000000000000e+00 0.0000000000000000e+00  0.0000000000000000e+00 0.0000000000000000e+00 0.0000000000000000e+00  0.0000000000000000e+00 0.0000000000000000e+00 0.0000000000000000e+00  0.0000000000000000e+00 0.0000000000000000e+00 0.0000000000000000e+00  0.0000000000000000e+00 0.0000000000000000e+00 0.0000000000000000e+00  0.0000000000000000e+00 0.0000000000000000e+00 0.0000000000000000e+00  0.0000000000000000e+00 0.0000000000000000e+00 0.0000000000000000e+00  0.0000000000000000e+00 0.0000000000000000e+00 0.0000000000000000e+00  0.0000000000000000e+00 0.0000000000000000e+00 0.0000000000000000e+00  0.0000000000000000e+00 0.0000000000000000e+00 0.0000000000000000e+00  0.0000000000000000e+00 0.0000000000000000e+00 0.0000000000000000e+00  0.0000000000000000e+00 0.0000000000000000e+00 0.0000000000000000e+00  0.0000000000000000e+00 0.0000000000000000e+00 0.0000000000000000e+00  0.0000000000000000e+00 0.0000000000000000e+00 0.0000000000000000e+00  0.0000000000000000e+00 0.0000000000000000e+00 0.0000000000000000e+00  0.0000000000000000e+00 0.0000000000000000e+00 0.0000000000000000e+00  0.0000000000000000e+00 0.0000000000000000e+00 0.0000000000000000e+00  0.0000000000000000e+00 0.0000000000000000e+00 0.0000000000000000e+00  0.0000000000000000e+00 0.0000000000000000e+00 0.0000000000000000e+00  0.0000000000000000e+00 0.0000000000000000e+00 0.0000000000000000e+00  0.0000000000000000e+00 0.0000000000000000e+00 0.0000000000000000e+00  0.0000000000000000e+00 0.0000000000000000e+00 0.0000000000000000e+00  0.0000000000000000e+00 0.0000000000000000e+00 0.0000000000000000e+00  0.0000000000000000e+00 0.0000000000000000e+00 0.0000000000000000e+00  0.0000000000000000e+00 0.0000000000000000e+00 0.0000000000000000e+00  0.0000000000000000e+00 0.0000000000000000e+00 0.0000000000000000e+00  0.0000000000000000e+00 0.0000000000000000e+00 0.0000000000000000e+00  0.0000000000000000e+00 0.0000000000000000e+00 0.0000000000000000e+00  0.0000000000000000e+00 0.0000000000000000e+00 0.0000000000000000e+00  0.0000000000000000e+00 0.0000000000000000e+00 0.0000000000000000e+00  0.0000000000000000e+00 0.0000000000000000e+00 0.0000000000000000e+00  0.0000000000000000e+00 0.0000000000000000e+00 0.0000000000000000e+00  0.0000000000000000e+00 0.0000000000000000e+00 0.0000000000000000e+00  0.0000000000000000e+00 0.0000000000000000e+00 0.0000000000000000e+00  0.0000000000000000e+00 0.0000000000000000e+00 0.0000000000000000e+00  0.0000000000000000e+00 0.0000000000000000e+00 0.0000000000000000e+00  0.0000000000000000e+00 0.0000000000000000e+00 0.0000000000000000e+00  0.0000000000000000e+00 0.0000000000000000e+00 0.0000000000000000e+00  0.0000000000000000e+00 0.0000000000000000e+00 0.0000000000000000e+00  0.0000000000000000e+00 0.0000000000000000e+00 0.0000000000000000e+00  0.0000000000000000e+00 0.0000000000000000e+00 0.0000000000000000e+00  0.0000000000000000e+00 0.0000000000000000e+00 0.0000000000000000e+00  0.0000000000000000e+00 0.0000000000000000e+00 0.0000000000000000e+00  0.0000000000000000e+00 0.0000000000000000e+00 0.0000000000000000e+00  0.0000000000000000e+00 0.0000000000000000e+00 0.0000000000000000e+00  0.0000000000000000e+00 0.0000000000000000e+00 0.0000000000000000e+00  0.0